 Entering Gaussian System, Link 0=g09
 Input=/scratch/mverot/alizarine/alizarine.com
 Output=/scratch/mverot/alizarine/alizarine.log
 Initial command:
 /opt/g09/l1.exe "/scratch/mverot/alizarine/Gau-2445469.inp" -scrdir="/scratch/mverot/alizarine/"
 Entering Link 1 = /opt/g09/l1.exe PID=   2445471.
  
 Copyright (c) 1988,1990,1992,1993,1995,1998,2003,2009,2013,
            Gaussian, Inc.  All Rights Reserved.
  
 This is part of the Gaussian(R) 09 program.  It is based on
 the Gaussian(R) 03 system (copyright 2003, Gaussian, Inc.),
 the Gaussian(R) 98 system (copyright 1998, Gaussian, Inc.),
 the Gaussian(R) 94 system (copyright 1995, Gaussian, Inc.),
 the Gaussian 92(TM) system (copyright 1992, Gaussian, Inc.),
 the Gaussian 90(TM) system (copyright 1990, Gaussian, Inc.),
 the Gaussian 88(TM) system (copyright 1988, Gaussian, Inc.),
 the Gaussian 86(TM) system (copyright 1986, Carnegie Mellon
 University), and the Gaussian 82(TM) system (copyright 1983,
 Carnegie Mellon University). Gaussian is a federally registered
 trademark of Gaussian, Inc.
  
 This software contains proprietary and confidential information,
 including trade secrets, belonging to Gaussian, Inc.
  
 This software is provided under written license and may be
 used, copied, transmitted, or stored only in accord with that
 written license.
  
 The following legend is applicable only to US Government
 contracts under FAR:
  
                    RESTRICTED RIGHTS LEGEND
  
 Use, reproduction and disclosure by the US Government is
 subject to restrictions as set forth in subparagraphs (a)
 and (c) of the Commercial Computer Software - Restricted
 Rights clause in FAR 52.227-19.
  
 Gaussian, Inc.
 340 Quinnipiac St., Bldg. 40, Wallingford CT 06492
  
  
 ---------------------------------------------------------------
 Warning -- This program may not be used in any manner that
 competes with the business of Gaussian, Inc. or will provide
 assistance to any competitor of Gaussian, Inc.  The licensee
 of this program is prohibited from giving any competitor of
 Gaussian, Inc. access to this program.  By using this program,
 the user acknowledges that Gaussian, Inc. is engaged in the
 business of creating and licensing software in the field of
 computational chemistry and represents and warrants to the
 licensee that it is not a competitor of Gaussian, Inc. and that
 it will not use this program in any manner prohibited above.
 ---------------------------------------------------------------
  

 Cite this work as:
 Gaussian 09, Revision D.01,
 M. J. Frisch, G. W. Trucks, H. B. Schlegel, G. E. Scuseria, 
 M. A. Robb, J. R. Cheeseman, G. Scalmani, V. Barone, B. Mennucci, 
 G. A. Petersson, H. Nakatsuji, M. Caricato, X. Li, H. P. Hratchian, 
 A. F. Izmaylov, J. Bloino, G. Zheng, J. L. Sonnenberg, M. Hada, 
 M. Ehara, K. Toyota, R. Fukuda, J. Hasegawa, M. Ishida, T. Nakajima, 
 Y. Honda, O. Kitao, H. Nakai, T. Vreven, J. A. Montgomery, Jr., 
 J. E. Peralta, F. Ogliaro, M. Bearpark, J. J. Heyd, E. Brothers, 
 K. N. Kudin, V. N. Staroverov, T. Keith, R. Kobayashi, J. Normand, 
 K. Raghavachari, A. Rendell, J. C. Burant, S. S. Iyengar, J. Tomasi, 
 M. Cossi, N. Rega, J. M. Millam, M. Klene, J. E. Knox, J. B. Cross, 
 V. Bakken, C. Adamo, J. Jaramillo, R. Gomperts, R. E. Stratmann, 
 O. Yazyev, A. J. Austin, R. Cammi, C. Pomelli, J. W. Ochterski, 
 R. L. Martin, K. Morokuma, V. G. Zakrzewski, G. A. Voth, 
 P. Salvador, J. J. Dannenberg, S. Dapprich, A. D. Daniels, 
 O. Farkas, J. B. Foresman, J. V. Ortiz, J. Cioslowski, 
 and D. J. Fox, Gaussian, Inc., Wallingford CT, 2013.
 
 ******************************************
 Gaussian 09:  AM64L-G09RevD.01 24-Apr-2013
                16-Sep-2022 
 ******************************************
 %chk=alizarine
 ------------------------------------
 #n ZINDO(NSTATE=10) pop=full gfinput
 ------------------------------------
 1/38=1/1;
 2/12=2,17=6,18=5,40=1/2;
 3/5=2,16=1,24=10,25=1,41=400000/1,2,8,3;
 4/5=3,35=1/1;
 5/5=2,35=1,38=5/2;
 8/6=1,108=10/1;
 9/41=10,42=1,49=10/14;
 6/7=3/1;
 99/5=1,9=1/99;
 ---------
 alizarine
 ---------
 Symbolic Z-matrix:
 Charge =  0 Multiplicity = 1
 C                    -2.4236    0.5542   -0.1353 
 C                    -2.0909   -0.8094   -0.016 
 C                    -1.3669    1.6093   -0.1594 
 C                    -3.7664    0.9329   -0.2336 
 C                    -0.6751   -1.2428    0.0904 
 C                    -3.1053   -1.775     0.0037 
 C                     0.3733   -0.2155    0.0677 
 O                    -0.3997   -2.4531    0.1961 
 C                     0.044     1.1632   -0.0527 
 C                     1.7244   -0.6117    0.1674 
 C                     1.0545    2.1152   -0.072 
 O                    -1.6641    2.7964   -0.2644 
 C                    -4.4389   -1.3879   -0.0946 
 C                    -4.7696   -0.033    -0.2134 
 C                     2.3939    1.7242    0.0267 
 C                     2.7402    0.3836    0.1454 
 O                     4.0177   -0.0625    0.2456 
 O                     2.1148   -1.8843    0.2834 
 H                    -3.996     1.9892   -0.3251 
 H                    -2.8254   -2.8189    0.0969 
 H                     0.7834    3.1609   -0.1651 
 H                    -5.2229   -2.1398   -0.079 
 H                    -5.8111    0.2667   -0.2903 
 H                     3.1816    2.4754    0.011 
 H                     4.6199    0.6982    0.2205 
 H                     1.2824   -2.4295    0.281 
 
                          Input orientation:                          
 ---------------------------------------------------------------------
 Center     Atomic      Atomic             Coordinates (Angstroms)
 Number     Number       Type             X           Y           Z
 ---------------------------------------------------------------------
      1          6           0       -2.423600    0.554200   -0.135300
      2          6           0       -2.090900   -0.809400   -0.016000
      3          6           0       -1.366900    1.609300   -0.159400
      4          6           0       -3.766400    0.932900   -0.233600
      5          6           0       -0.675100   -1.242800    0.090400
      6          6           0       -3.105300   -1.775000    0.003700
      7          6           0        0.373300   -0.215500    0.067700
      8          8           0       -0.399700   -2.453100    0.196100
      9          6           0        0.044000    1.163200   -0.052700
     10          6           0        1.724400   -0.611700    0.167400
     11          6           0        1.054500    2.115200   -0.072000
     12          8           0       -1.664100    2.796400   -0.264400
     13          6           0       -4.438900   -1.387900   -0.094600
     14          6           0       -4.769600   -0.033000   -0.213400
     15          6           0        2.393900    1.724200    0.026700
     16          6           0        2.740200    0.383600    0.145400
     17          8           0        4.017700   -0.062500    0.245600
     18          8           0        2.114800   -1.884300    0.283400
     19          1           0       -3.996000    1.989200   -0.325100
     20          1           0       -2.825400   -2.818900    0.096900
     21          1           0        0.783400    3.160900   -0.165100
     22          1           0       -5.222900   -2.139800   -0.079000
     23          1           0       -5.811100    0.266700   -0.290300
     24          1           0        3.181600    2.475400    0.011000
     25          1           0        4.619900    0.698200    0.220500
     26          1           0        1.282400   -2.429500    0.281000
 ---------------------------------------------------------------------
                    Distance matrix (angstroms):
                    1          2          3          4          5
     1  C    0.000000
     2  C    1.408661   0.000000
     3  C    1.493463   2.528804   0.000000
     4  C    1.398638   2.426986   2.494118   0.000000
     5  C    2.517420   1.484468   2.945414   3.794046   0.000000
     6  C    2.430886   1.400635   3.808165   2.797514   2.489302
     7  C    2.907971   2.536140   2.531751   4.306590   1.467993
     8  O    3.640034   2.367888   4.191056   4.794195   1.245730
     9  C    2.542981   2.906939   1.483587   3.821637   2.515237
    10  C    4.319358   3.824818   3.820442   5.717996   2.482301
    11  C    3.812861   4.295342   2.475228   4.966389   3.780748
    12  O    2.370858   3.639458   1.228234   2.809492   4.173624
    13  C    2.799079   2.419493   4.292388   2.420266   3.771136
    14  C    2.419632   2.795925   3.778681   1.392760   4.280285
    15  C    4.960187   5.151154   3.767154   6.216366   4.269181
    16  C    5.174237   4.978838   4.296919   6.540735   3.783183
    17  O    6.481956   6.159650   5.652686   7.862103   4.841443
    18  O    5.169010   4.351202   4.952126   6.541591   2.869201
    19  H    2.137216   3.399575   2.661569   1.084831   4.652617
    20  H    3.404874   2.142505   4.669247   3.882102   2.666069
    21  H    4.132871   4.903786   2.651657   5.066493   4.645974
    22  H    3.885471   3.403433   5.378750   3.403936   4.638512
    23  H    3.403210   3.882412   4.644419   2.151240   5.366751
    24  H    5.927114   6.212077   4.633359   7.121365   5.357747
    25  H    7.053951   6.882124   6.067636   8.401864   5.641049
    26  H    4.776003   3.753943   4.850221   6.087769   2.297040
                    6          7          8          9         10
     6  C    0.000000
     7  C    3.812715   0.000000
     8  O    2.795909   2.370837   0.000000
     9  C    4.307469   1.422585   3.651903   0.000000
    10  C    4.970520   1.411519   2.811295   2.454070   0.000000
    11  C    5.695904   2.432224   4.801660   1.388448   2.818166
    12  O    4.800691   3.651415   5.419227   2.372713   4.825301
    13  C    1.392120   4.955616   4.187397   5.158126   6.217507
    14  C    2.419006   5.153809   5.012046   4.962607   6.530845
    15  C    6.518139   2.801239   5.028194   2.417241   2.434020
    16  C    6.232937   2.442780   4.231833   2.813630   1.422306
    17  O    7.329959   3.651946   5.023031   4.169126   2.359441
    18  O    5.228730   2.421620   2.579509   3.699788   1.336181
    19  H    3.882094   4.909763   5.739255   4.132563   6.303191
    20  H    1.084785   4.124346   2.455132   4.910495   5.057409
    21  H    6.285984   3.409172   5.748668   2.133108   3.902377
    22  H    2.150383   5.919620   4.841187   6.216972   7.117639
    23  H    3.402400   6.213492   6.075948   5.928099   7.600318
    24  H    7.588878   3.889821   6.095087   3.401538   3.417320
    25  H    8.114335   4.346471   5.926860   4.607572   3.178455
    26  H    4.444905   2.402864   1.684407   3.814772   1.874211
                   11         12         13         14         15
    11  C    0.000000
    12  O    2.809241   0.000000
    13  C    6.515341   5.023616   0.000000
    14  C    6.209259   4.201456   1.399725   0.000000
    15  C    1.398791   4.207341   7.509130   7.379779   0.000000
    16  C    2.426373   5.038591   7.398330   7.529900   1.389684
    17  O    3.691043   6.380929   8.566592   8.799329   2.424240
    18  O    4.152896   6.040623   6.583334   7.146264   3.628369
    19  H    5.058407   2.468403   3.413809   2.168001   6.405061
    20  H    6.279132   5.745498   2.165136   3.411369   6.919955
    21  H    1.084275   2.476485   6.925963   6.406180   2.166704
    22  H    7.583589   6.088144   1.086394   2.159201   8.541505
    23  H    7.113443   4.857742   2.158456   1.086488   8.339474
    24  H    2.158978   4.864123   8.544487   8.340504   1.088586
    25  H    3.847794   6.642758   9.301234   9.427918   2.458721
    26  H    4.564082   6.024065   5.827459   6.527967   4.307357
                   16         17         18         19         20
    16  C    0.000000
    17  O    1.356854   0.000000
    18  O    2.356595   2.634656   0.000000
    19  H    6.940873   8.291837   7.260589   0.000000
    20  H    6.421391   7.378880   5.031286   4.966509   0.000000
    21  H    3.411579   4.584722   5.237158   4.923530   6.989284
    22  H    8.356367   9.476773   7.351085   4.314451   2.498024
    23  H    8.563191   9.848902   8.232607   2.502560   4.311062
    24  H    2.142084   2.682357   4.496582   7.201895   8.007561
    25  H    1.907324   0.970536   3.598443   8.729152   8.235154
    26  H    3.171293   3.617431   0.995057   6.910411   4.130320
                   21         22         23         24         25
    21  H    0.000000
    22  H    8.011272   0.000000
    23  H    7.202742   2.486336   0.000000
    24  H    2.500457   9.588733   9.264869   0.000000
    25  H    4.575184  10.248154  10.452410   2.295874   0.000000
    26  H    5.630327   6.521691   7.610100   5.266679   4.574393
                   26
    26  H    0.000000
 Stoichiometry    C14H8O4
 Framework group  C1[X(C14H8O4)]
 Deg. of freedom    72
 Full point group                 C1      NOp   1
 Largest Abelian subgroup         C1      NOp   1
 Largest concise Abelian subgroup C1      NOp   1
                         Standard orientation:                         
 ---------------------------------------------------------------------
 Center     Atomic      Atomic             Coordinates (Angstroms)
 Number     Number       Type             X           Y           Z
 ---------------------------------------------------------------------
      1          6           0        1.892163    0.666697   -0.000196
      2          6           0        1.650023   -0.720997    0.000204
      3          6           0        0.766834    1.648566   -0.000422
      4          6           0        3.208453    1.139529   -0.000121
      5          6           0        0.264421   -1.253682   -0.000069
      6          6           0        2.727174   -1.616276    0.000307
      7          6           0       -0.850767   -0.299031   -0.000039
      8          8           0        0.069339   -2.484043   -0.000556
      9          6           0       -0.613015    1.103546   -0.000297
     10          6           0       -2.174174   -0.789927    0.000230
     11          6           0       -1.685351    1.985521    0.000017
     12          8           0        0.985222    2.857228   -0.000025
     13          6           0        4.033712   -1.135694    0.000230
     14          6           0        4.274441    0.243175    0.000086
     15          6           0       -2.997415    1.500647    0.000287
     16          6           0       -3.254681    0.134983    0.000268
     17          8           0       -4.501296   -0.400743   -0.000037
     18          8           0       -2.479994   -2.090640    0.000096
     19          1           0        3.367958    2.212569    0.000114
     20          1           0        2.516604   -2.680427    0.000055
     21          1           0       -1.483680    3.050875    0.000490
     22          1           0        4.866584   -1.833244    0.000357
     23          1           0        5.294994    0.615905    0.000352
     24          1           0       -3.833921    2.197265    0.000504
     25          1           0       -5.153177    0.318277   -0.000771
     26          1           0       -1.612446   -2.577979    0.000184
 ---------------------------------------------------------------------
 Rotational constants (GHZ):      0.8986065      0.3150116      0.2332459
 Standard basis: VSTO-6G (5D, 7F)
 AO basis set in the form of general basis input (Overlap normalization):
      1 0
 S   6 1.00       0.000000000000
      0.7310560386D+02 -0.4151277819D-02
      0.1340682447D+02 -0.2067024148D-01
      0.3767606913D+01 -0.5150303337D-01
      0.5387761534D+00  0.3346271174D+00
      0.2445297546D+00  0.5621061301D+00
      0.1166148582D+00  0.1712994697D+00
 P   6 1.00       0.000000000000
      0.1549594249D+02  0.7924233646D-02
      0.4041026682D+01  0.5144104825D-01
      0.1445917850D+01  0.1898400060D+00
      0.6044212998D+00  0.4049863191D+00
      0.2763825918D+00  0.4012362861D+00
      0.1306639377D+00  0.1051855189D+00
 ****
      2 0
 S   6 1.00       0.000000000000
      0.7310560386D+02 -0.4151277819D-02
      0.1340682447D+02 -0.2067024148D-01
      0.3767606913D+01 -0.5150303337D-01
      0.5387761534D+00  0.3346271174D+00
      0.2445297546D+00  0.5621061301D+00
      0.1166148582D+00  0.1712994697D+00
 P   6 1.00       0.000000000000
      0.1549594249D+02  0.7924233646D-02
      0.4041026682D+01  0.5144104825D-01
      0.1445917850D+01  0.1898400060D+00
      0.6044212998D+00  0.4049863191D+00
      0.2763825918D+00  0.4012362861D+00
      0.1306639377D+00  0.1051855189D+00
 ****
      3 0
 S   6 1.00       0.000000000000
      0.7310560386D+02 -0.4151277819D-02
      0.1340682447D+02 -0.2067024148D-01
      0.3767606913D+01 -0.5150303337D-01
      0.5387761534D+00  0.3346271174D+00
      0.2445297546D+00  0.5621061301D+00
      0.1166148582D+00  0.1712994697D+00
 P   6 1.00       0.000000000000
      0.1549594249D+02  0.7924233646D-02
      0.4041026682D+01  0.5144104825D-01
      0.1445917850D+01  0.1898400060D+00
      0.6044212998D+00  0.4049863191D+00
      0.2763825918D+00  0.4012362861D+00
      0.1306639377D+00  0.1051855189D+00
 ****
      4 0
 S   6 1.00       0.000000000000
      0.7310560386D+02 -0.4151277819D-02
      0.1340682447D+02 -0.2067024148D-01
      0.3767606913D+01 -0.5150303337D-01
      0.5387761534D+00  0.3346271174D+00
      0.2445297546D+00  0.5621061301D+00
      0.1166148582D+00  0.1712994697D+00
 P   6 1.00       0.000000000000
      0.1549594249D+02  0.7924233646D-02
      0.4041026682D+01  0.5144104825D-01
      0.1445917850D+01  0.1898400060D+00
      0.6044212998D+00  0.4049863191D+00
      0.2763825918D+00  0.4012362861D+00
      0.1306639377D+00  0.1051855189D+00
 ****
      5 0
 S   6 1.00       0.000000000000
      0.7310560386D+02 -0.4151277819D-02
      0.1340682447D+02 -0.2067024148D-01
      0.3767606913D+01 -0.5150303337D-01
      0.5387761534D+00  0.3346271174D+00
      0.2445297546D+00  0.5621061301D+00
      0.1166148582D+00  0.1712994697D+00
 P   6 1.00       0.000000000000
      0.1549594249D+02  0.7924233646D-02
      0.4041026682D+01  0.5144104825D-01
      0.1445917850D+01  0.1898400060D+00
      0.6044212998D+00  0.4049863191D+00
      0.2763825918D+00  0.4012362861D+00
      0.1306639377D+00  0.1051855189D+00
 ****
      6 0
 S   6 1.00       0.000000000000
      0.7310560386D+02 -0.4151277819D-02
      0.1340682447D+02 -0.2067024148D-01
      0.3767606913D+01 -0.5150303337D-01
      0.5387761534D+00  0.3346271174D+00
      0.2445297546D+00  0.5621061301D+00
      0.1166148582D+00  0.1712994697D+00
 P   6 1.00       0.000000000000
      0.1549594249D+02  0.7924233646D-02
      0.4041026682D+01  0.5144104825D-01
      0.1445917850D+01  0.1898400060D+00
      0.6044212998D+00  0.4049863191D+00
      0.2763825918D+00  0.4012362861D+00
      0.1306639377D+00  0.1051855189D+00
 ****
      7 0
 S   6 1.00       0.000000000000
      0.7310560386D+02 -0.4151277819D-02
      0.1340682447D+02 -0.2067024148D-01
      0.3767606913D+01 -0.5150303337D-01
      0.5387761534D+00  0.3346271174D+00
      0.2445297546D+00  0.5621061301D+00
      0.1166148582D+00  0.1712994697D+00
 P   6 1.00       0.000000000000
      0.1549594249D+02  0.7924233646D-02
      0.4041026682D+01  0.5144104825D-01
      0.1445917850D+01  0.1898400060D+00
      0.6044212998D+00  0.4049863191D+00
      0.2763825918D+00  0.4012362861D+00
      0.1306639377D+00  0.1051855189D+00
 ****
      8 0
 S   6 1.00       0.000000000000
      0.1432869836D+03 -0.4151277819D-02
      0.2627737596D+02 -0.2067024148D-01
      0.7384509550D+01 -0.5150303337D-01
      0.1056001261D+01  0.3346271174D+00
      0.4792783190D+00  0.5621061301D+00
      0.2285651220D+00  0.1712994697D+00
 P   6 1.00       0.000000000000
      0.3037204728D+02  0.7924233646D-02
      0.7920412296D+01  0.5144104825D-01
      0.2833998986D+01  0.1898400060D+00
      0.1184665748D+01  0.4049863191D+00
      0.5417098800D+00  0.4012362861D+00
      0.2561013179D+00  0.1051855189D+00
 ****
      9 0
 S   6 1.00       0.000000000000
      0.7310560386D+02 -0.4151277819D-02
      0.1340682447D+02 -0.2067024148D-01
      0.3767606913D+01 -0.5150303337D-01
      0.5387761534D+00  0.3346271174D+00
      0.2445297546D+00  0.5621061301D+00
      0.1166148582D+00  0.1712994697D+00
 P   6 1.00       0.000000000000
      0.1549594249D+02  0.7924233646D-02
      0.4041026682D+01  0.5144104825D-01
      0.1445917850D+01  0.1898400060D+00
      0.6044212998D+00  0.4049863191D+00
      0.2763825918D+00  0.4012362861D+00
      0.1306639377D+00  0.1051855189D+00
 ****
     10 0
 S   6 1.00       0.000000000000
      0.7310560386D+02 -0.4151277819D-02
      0.1340682447D+02 -0.2067024148D-01
      0.3767606913D+01 -0.5150303337D-01
      0.5387761534D+00  0.3346271174D+00
      0.2445297546D+00  0.5621061301D+00
      0.1166148582D+00  0.1712994697D+00
 P   6 1.00       0.000000000000
      0.1549594249D+02  0.7924233646D-02
      0.4041026682D+01  0.5144104825D-01
      0.1445917850D+01  0.1898400060D+00
      0.6044212998D+00  0.4049863191D+00
      0.2763825918D+00  0.4012362861D+00
      0.1306639377D+00  0.1051855189D+00
 ****
     11 0
 S   6 1.00       0.000000000000
      0.7310560386D+02 -0.4151277819D-02
      0.1340682447D+02 -0.2067024148D-01
      0.3767606913D+01 -0.5150303337D-01
      0.5387761534D+00  0.3346271174D+00
      0.2445297546D+00  0.5621061301D+00
      0.1166148582D+00  0.1712994697D+00
 P   6 1.00       0.000000000000
      0.1549594249D+02  0.7924233646D-02
      0.4041026682D+01  0.5144104825D-01
      0.1445917850D+01  0.1898400060D+00
      0.6044212998D+00  0.4049863191D+00
      0.2763825918D+00  0.4012362861D+00
      0.1306639377D+00  0.1051855189D+00
 ****
     12 0
 S   6 1.00       0.000000000000
      0.1432869836D+03 -0.4151277819D-02
      0.2627737596D+02 -0.2067024148D-01
      0.7384509550D+01 -0.5150303337D-01
      0.1056001261D+01  0.3346271174D+00
      0.4792783190D+00  0.5621061301D+00
      0.2285651220D+00  0.1712994697D+00
 P   6 1.00       0.000000000000
      0.3037204728D+02  0.7924233646D-02
      0.7920412296D+01  0.5144104825D-01
      0.2833998986D+01  0.1898400060D+00
      0.1184665748D+01  0.4049863191D+00
      0.5417098800D+00  0.4012362861D+00
      0.2561013179D+00  0.1051855189D+00
 ****
     13 0
 S   6 1.00       0.000000000000
      0.7310560386D+02 -0.4151277819D-02
      0.1340682447D+02 -0.2067024148D-01
      0.3767606913D+01 -0.5150303337D-01
      0.5387761534D+00  0.3346271174D+00
      0.2445297546D+00  0.5621061301D+00
      0.1166148582D+00  0.1712994697D+00
 P   6 1.00       0.000000000000
      0.1549594249D+02  0.7924233646D-02
      0.4041026682D+01  0.5144104825D-01
      0.1445917850D+01  0.1898400060D+00
      0.6044212998D+00  0.4049863191D+00
      0.2763825918D+00  0.4012362861D+00
      0.1306639377D+00  0.1051855189D+00
 ****
     14 0
 S   6 1.00       0.000000000000
      0.7310560386D+02 -0.4151277819D-02
      0.1340682447D+02 -0.2067024148D-01
      0.3767606913D+01 -0.5150303337D-01
      0.5387761534D+00  0.3346271174D+00
      0.2445297546D+00  0.5621061301D+00
      0.1166148582D+00  0.1712994697D+00
 P   6 1.00       0.000000000000
      0.1549594249D+02  0.7924233646D-02
      0.4041026682D+01  0.5144104825D-01
      0.1445917850D+01  0.1898400060D+00
      0.6044212998D+00  0.4049863191D+00
      0.2763825918D+00  0.4012362861D+00
      0.1306639377D+00  0.1051855189D+00
 ****
     15 0
 S   6 1.00       0.000000000000
      0.7310560386D+02 -0.4151277819D-02
      0.1340682447D+02 -0.2067024148D-01
      0.3767606913D+01 -0.5150303337D-01
      0.5387761534D+00  0.3346271174D+00
      0.2445297546D+00  0.5621061301D+00
      0.1166148582D+00  0.1712994697D+00
 P   6 1.00       0.000000000000
      0.1549594249D+02  0.7924233646D-02
      0.4041026682D+01  0.5144104825D-01
      0.1445917850D+01  0.1898400060D+00
      0.6044212998D+00  0.4049863191D+00
      0.2763825918D+00  0.4012362861D+00
      0.1306639377D+00  0.1051855189D+00
 ****
     16 0
 S   6 1.00       0.000000000000
      0.7310560386D+02 -0.4151277819D-02
      0.1340682447D+02 -0.2067024148D-01
      0.3767606913D+01 -0.5150303337D-01
      0.5387761534D+00  0.3346271174D+00
      0.2445297546D+00  0.5621061301D+00
      0.1166148582D+00  0.1712994697D+00
 P   6 1.00       0.000000000000
      0.1549594249D+02  0.7924233646D-02
      0.4041026682D+01  0.5144104825D-01
      0.1445917850D+01  0.1898400060D+00
      0.6044212998D+00  0.4049863191D+00
      0.2763825918D+00  0.4012362861D+00
      0.1306639377D+00  0.1051855189D+00
 ****
     17 0
 S   6 1.00       0.000000000000
      0.1432869836D+03 -0.4151277819D-02
      0.2627737596D+02 -0.2067024148D-01
      0.7384509550D+01 -0.5150303337D-01
      0.1056001261D+01  0.3346271174D+00
      0.4792783190D+00  0.5621061301D+00
      0.2285651220D+00  0.1712994697D+00
 P   6 1.00       0.000000000000
      0.3037204728D+02  0.7924233646D-02
      0.7920412296D+01  0.5144104825D-01
      0.2833998986D+01  0.1898400060D+00
      0.1184665748D+01  0.4049863191D+00
      0.5417098800D+00  0.4012362861D+00
      0.2561013179D+00  0.1051855189D+00
 ****
     18 0
 S   6 1.00       0.000000000000
      0.1432869836D+03 -0.4151277819D-02
      0.2627737596D+02 -0.2067024148D-01
      0.7384509550D+01 -0.5150303337D-01
      0.1056001261D+01  0.3346271174D+00
      0.4792783190D+00  0.5621061301D+00
      0.2285651220D+00  0.1712994697D+00
 P   6 1.00       0.000000000000
      0.3037204728D+02  0.7924233646D-02
      0.7920412296D+01  0.5144104825D-01
      0.2833998986D+01  0.1898400060D+00
      0.1184665748D+01  0.4049863191D+00
      0.5417098800D+00  0.4012362861D+00
      0.2561013179D+00  0.1051855189D+00
 ****
     19 0
 S   6 1.00       0.000000000000
      0.3326836535D+02  0.9163596281D-02
      0.6099718369D+01  0.4936149294D-01
      0.1706481387D+01  0.1685383049D+00
      0.5862224134D+00  0.3705627997D+00
      0.2276473177D+00  0.4164915298D+00
      0.9375773694D-01  0.1303340841D+00
 ****
     20 0
 S   6 1.00       0.000000000000
      0.3326836535D+02  0.9163596281D-02
      0.6099718369D+01  0.4936149294D-01
      0.1706481387D+01  0.1685383049D+00
      0.5862224134D+00  0.3705627997D+00
      0.2276473177D+00  0.4164915298D+00
      0.9375773694D-01  0.1303340841D+00
 ****
     21 0
 S   6 1.00       0.000000000000
      0.3326836535D+02  0.9163596281D-02
      0.6099718369D+01  0.4936149294D-01
      0.1706481387D+01  0.1685383049D+00
      0.5862224134D+00  0.3705627997D+00
      0.2276473177D+00  0.4164915298D+00
      0.9375773694D-01  0.1303340841D+00
 ****
     22 0
 S   6 1.00       0.000000000000
      0.3326836535D+02  0.9163596281D-02
      0.6099718369D+01  0.4936149294D-01
      0.1706481387D+01  0.1685383049D+00
      0.5862224134D+00  0.3705627997D+00
      0.2276473177D+00  0.4164915298D+00
      0.9375773694D-01  0.1303340841D+00
 ****
     23 0
 S   6 1.00       0.000000000000
      0.3326836535D+02  0.9163596281D-02
      0.6099718369D+01  0.4936149294D-01
      0.1706481387D+01  0.1685383049D+00
      0.5862224134D+00  0.3705627997D+00
      0.2276473177D+00  0.4164915298D+00
      0.9375773694D-01  0.1303340841D+00
 ****
     24 0
 S   6 1.00       0.000000000000
      0.3326836535D+02  0.9163596281D-02
      0.6099718369D+01  0.4936149294D-01
      0.1706481387D+01  0.1685383049D+00
      0.5862224134D+00  0.3705627997D+00
      0.2276473177D+00  0.4164915298D+00
      0.9375773694D-01  0.1303340841D+00
 ****
     25 0
 S   6 1.00       0.000000000000
      0.3326836535D+02  0.9163596281D-02
      0.6099718369D+01  0.4936149294D-01
      0.1706481387D+01  0.1685383049D+00
      0.5862224134D+00  0.3705627997D+00
      0.2276473177D+00  0.4164915298D+00
      0.9375773694D-01  0.1303340841D+00
 ****
     26 0
 S   6 1.00       0.000000000000
      0.3326836535D+02  0.9163596281D-02
      0.6099718369D+01  0.4936149294D-01
      0.1706481387D+01  0.1685383049D+00
      0.5862224134D+00  0.3705627997D+00
      0.2276473177D+00  0.4164915298D+00
      0.9375773694D-01  0.1303340841D+00
 ****

 There are    80 symmetry adapted cartesian basis functions of A   symmetry.
 There are    80 symmetry adapted basis functions of A   symmetry.
    80 basis functions,   480 primitive gaussians,    80 cartesian basis functions
    44 alpha electrons       44 beta electrons
       nuclear repulsion energy       609.3179523797 Hartrees.
 Integral buffers will be    131072 words long.
 Regular integral format.
 Two-electron integral symmetry is turned off.
 Do NDO integrals.
 One-electron integrals computed using PRISM.
 Generate ZINDO/S integrals.
 NDO Nuclear repulsion=   470.455499995181 Hartrees.
 NBasis=    80 RedAO= F EigKep=  0.00D+00  NBF=    80
 NBsUse=    80 1.00D-04 EigRej=  0.00D+00 NBFU=    80
 DipDrv:  will hold  3 matrices at once.
 Simple Huckel Guess.
 Overlap will be assumed to be unity.
 Requested convergence on RMS density matrix=1.00D-08 within 128 cycles.
 Requested convergence on MAX density matrix=1.00D-06.
 Requested convergence on             energy=1.00D-06.
 No special actions if energy rises.
 SCF Done:  E(RZINDO/S) =  -132.340113199     A.U. after   14 cycles
            NFock= 14  Conv=0.71D-08     -V/T= 0.8834
 Range of M.O.s used for correlation:     1    80
 NBasis=    80 NAE=    44 NBE=    44 NFC=     0 NFV=     0
 NROrb=     80 NOA=    44 NOB=    44 NVA=    36 NVB=    36
 Orbital symmetries:
       Occupied  (A) (A) (A) (A) (A) (A) (A) (A) (A) (A) (A) (A)
                 (A) (A) (A) (A) (A) (A) (A) (A) (A) (A) (A) (A)
                 (A) (A) (A) (A) (A) (A) (A) (A) (A) (A) (A) (A)
                 (A) (A) (A) (A) (A) (A) (A) (A)
       Virtual   (A) (A) (A) (A) (A) (A) (A) (A) (A) (A) (A) (A)
                 (A) (A) (A) (A) (A) (A) (A) (A) (A) (A) (A) (A)
                 (A) (A) (A) (A) (A) (A) (A) (A) (A) (A) (A) (A)
    40 initial guesses have been made.
 Convergence on wavefunction:    0.001000000000000
 Iteration     1 Dimension    40 NMult     0 NNew     40
 CISAX will form    40 AO SS matrices at one time.
 New state      1 was old state      5
 New state      2 was old state      7
 New state      3 was old state      1
 New state      4 was old state      2
 New state      5 was old state      3
 New state      6 was old state      4
 New state      7 was old state      8
 New state      8 was old state      6
 New state      9 was old state     10
 New state     10 was old state      9
 Iteration     2 Dimension    80 NMult    40 NNew     40
 Iteration     3 Dimension    90 NMult    80 NNew     10
 Iteration     4 Dimension   100 NMult    90 NNew     10
 Iteration     5 Dimension   110 NMult   100 NNew     10
 Iteration     6 Dimension   113 NMult   110 NNew      3
 ***********************************************************************
 Excited states from <AA,BB:AA,BB> singles matrix:
 ***********************************************************************
 
 Ground to excited state transition densities written to RWF  633
 Ground to excited state transition electric dipole moments (Au):
       state          X           Y           Z        Dip. S.      Osc.
         1         0.0003      0.0002     -0.0005      0.0000      0.0000
         2         0.0013     -0.0003     -0.0037      0.0000      0.0000
         3        -1.7837     -0.2321      0.0003      3.2354      0.2680
         4        -0.1837      0.1972      0.0001      0.0727      0.0066
         5         0.8990     -0.3030      0.0001      0.9000      0.0905
         6         0.7931      1.0344      0.0001      1.6990      0.1821
         7        -1.2507      1.2966      0.0001      3.2453      0.3771
         8        -0.0237      1.3967     -0.0001      1.9513      0.2319
         9         2.2857     -0.2646      0.0000      5.2946      0.6650
        10        -0.6489      0.4672      0.0004      0.6394      0.0853
 Ground to excited state transition velocity dipole moments (Au):
       state          X           Y           Z        Dip. S.      Osc.
         1        -0.0000     -0.0000     -0.0016      0.0000      0.0000
         2        -0.0001      0.0000      0.0006      0.0000      0.0000
         3         0.1081     -0.0033     -0.0000      0.0117      0.0627
         4         0.0136     -0.0033     -0.0000      0.0002      0.0009
         5        -0.0827      0.0199     -0.0000      0.0072      0.0320
         6        -0.0735     -0.0324     -0.0000      0.0065      0.0268
         7         0.1351     -0.0827     -0.0000      0.0251      0.0960
         8         0.0131     -0.0878      0.0000      0.0079      0.0295
         9        -0.2699      0.0346     -0.0000      0.0740      0.2620
        10         0.0819     -0.0372     -0.0000      0.0081      0.0270
 Ground to excited state transition magnetic dipole moments (Au):
       state          X           Y           Z
         1         0.1235      0.7775      0.0003
         2        -0.0792     -0.4474      0.0002
         3        -0.0001     -0.0001     -0.4192
         4        -0.0001      0.0001      1.1700
         5         0.0000      0.0000      0.0133
         6        -0.0001     -0.0002     -0.6220
         7         0.0001     -0.0003      0.0144
         8         0.0001      0.0001      0.4526
         9        -0.0000      0.0002      0.3177
        10        -0.0000     -0.0021     -0.7845
 Ground to excited state transition velocity quadrupole moments (Au):
       state          XX          YY          ZZ          XY          XZ          YZ
         1         0.0002     -0.0001      0.0000     -0.0001     -0.0059     -0.0139
         2         0.0005     -0.0001      0.0000      0.0002      0.0119     -0.0056
         3        -0.1112      0.0331     -0.0028     -0.0092      0.0001     -0.0000
         4         0.1973     -0.0918     -0.0018      0.0867     -0.0000     -0.0000
         5        -0.5509      0.0585     -0.0148      0.0630     -0.0000      0.0000
         6         0.1720     -0.0711      0.0024     -0.3037      0.0001      0.0001
         7        -0.2485     -0.0128     -0.0174      0.3174      0.0000      0.0001
         8        -0.2889     -0.0361     -0.0073      0.3459     -0.0001     -0.0000
         9        -1.1606      0.1609     -0.0327      0.2600     -0.0001      0.0001
        10        -1.1926      0.3413     -0.0070     -0.2917      0.0001      0.0001
 <0|del|b> * <b|rxdel|0> + <0|del|b> * <b|delr+rdel|0>
 Rotatory Strengths (R) in cgs (10**-40 erg-esu-cm/Gauss)
       state          XX          YY          ZZ    R(velocity)    E-M Angle
         1        -0.0366     -0.0057     -0.0394     -0.0272       90.00
         2        -0.0693      0.0275     -0.0428     -0.0282       90.00
         3         0.0220     -0.0249     -0.0195     -0.0075       90.00
         4        -0.0641     -0.0574     -0.0026     -0.0414       90.00
         5        -0.0015     -0.0087      0.0000     -0.0034       90.00
         6         0.0287     -0.0056      0.0364      0.0198       90.00
         7         0.0492      0.0474      0.0355      0.0440       90.00
         8         0.0207      0.0092     -0.0082      0.0072       90.00
         9         0.0103     -0.0346      0.0691      0.0149       90.00
        10         0.2177      0.0445      0.1115      0.1246       89.91
 1/2[<0|r|b>*<b|rxdel|0> + (<0|rxdel|b>*<b|r|0>)*]
 Rotatory Strengths (R) in cgs (10**-40 erg-esu-cm/Gauss)
       state          XX          YY          ZZ     R(length)
         1        -0.0281     -0.1302      0.0001     -0.0527
         2         0.0711     -0.1086      0.0006     -0.0123
         3        -0.1320     -0.0087      0.0834     -0.0191
         4        -0.0086     -0.0172     -0.1122     -0.0460
         5        -0.0170      0.0028     -0.0012     -0.0051
         6         0.0475      0.1215      0.0362      0.0684
         7         0.0603      0.2593     -0.0011      0.1062
         8         0.0011     -0.1369      0.0197     -0.0387
         9         0.0374      0.0448     -0.0046      0.0258
        10        -0.0109      0.6856      0.2290      0.3012
  1/2[<0|del|b>*<b|r|0> + (<0|r|b>*<b|del|0>)*] (Au)
       state          X           Y           Z        Dip. S.   Osc.(frdel)
         1        -0.0000     -0.0000      0.0000     -0.0000     -0.0000
         2        -0.0000     -0.0000     -0.0000      0.0000      0.0000
         3        -0.1928      0.0008     -0.0000      0.1920      0.1280
         4        -0.0025     -0.0007     -0.0000      0.0031      0.0021
         5        -0.0744     -0.0060     -0.0000      0.0804      0.0536
         6        -0.0583     -0.0335     -0.0000      0.0919      0.0612
         7        -0.1690     -0.1073     -0.0000      0.2763      0.1842
         8        -0.0003     -0.1226     -0.0000      0.1229      0.0820
         9        -0.6169     -0.0092     -0.0000      0.6261      0.4174
        10        -0.0532     -0.0174     -0.0000      0.0706      0.0470

 Excitation energies and oscillator strengths:
 
 Excited State   1:      Singlet-A      2.6066 eV  475.65 nm  f=0.0000  <S**2>=0.000
      39 -> 46        -0.19407
      39 -> 49         0.12537
      40 -> 45         0.58550
      40 -> 46        -0.18970
      40 -> 49         0.20511
 This state for optimization and/or second-order correction.
 Total Energy, E(CIS) =  -132.244322069    
 Copying the excited state density for this state as the 1-particle RhoCI density.
 
 Excited State   2:      Singlet-A      2.7045 eV  458.44 nm  f=0.0000  <S**2>=0.000
      39 -> 45         0.54948
      39 -> 46         0.23827
      39 -> 50        -0.23273
      40 -> 46        -0.21484
      40 -> 49         0.11938
 
 Excited State   3:      Singlet-A      3.3815 eV  366.66 nm  f=0.2680  <S**2>=0.000
      44 -> 45         0.65018
      44 -> 47        -0.15487
 
 Excited State   4:      Singlet-A      3.7186 eV  333.42 nm  f=0.0066  <S**2>=0.000
      43 -> 45         0.64913
      44 -> 45        -0.10708
      44 -> 46        -0.15720
 
 Excited State   5:      Singlet-A      4.1036 eV  302.14 nm  f=0.0905  <S**2>=0.000
      41 -> 45         0.18749
      41 -> 46         0.13896
      41 -> 48        -0.12513
      42 -> 45         0.57511
      42 -> 47         0.20897
      43 -> 46        -0.11297
      43 -> 48         0.13479
 
 Excited State   6:      Singlet-A      4.3737 eV  283.48 nm  f=0.1821  <S**2>=0.000
      41 -> 45         0.48745
      42 -> 45        -0.17819
      42 -> 46        -0.12250
      43 -> 47        -0.11896
      44 -> 45        -0.11226
      44 -> 46        -0.31022
      44 -> 48        -0.23701
 
 Excited State   7:      Singlet-A      4.7427 eV  261.42 nm  f=0.3771  <S**2>=0.000
      41 -> 45         0.25934
      41 -> 46        -0.13728
      43 -> 45         0.12415
      43 -> 46        -0.27743
      43 -> 48        -0.18413
      44 -> 45         0.14940
      44 -> 46         0.27677
      44 -> 47         0.31099
      44 -> 48         0.14705
      44 -> 49         0.13499
      44 -> 50        -0.10080
 
 Excited State   8:      Singlet-A      4.8510 eV  255.58 nm  f=0.2319  <S**2>=0.000
      41 -> 45         0.27062
      43 -> 45         0.14027
      43 -> 46         0.20691
      43 -> 48         0.13223
      44 -> 45        -0.11485
      44 -> 46         0.38281
      44 -> 47        -0.28242
      44 -> 48         0.17515
      44 -> 49        -0.12381
      44 -> 50         0.12079
 
 Excited State   9:      Singlet-A      5.1269 eV  241.83 nm  f=0.6650  <S**2>=0.000
      41 -> 45         0.10923
      41 -> 46        -0.29724
      41 -> 48         0.21171
      42 -> 45         0.28577
      42 -> 46         0.12771
      42 -> 47        -0.17225
      42 -> 50        -0.10890
      43 -> 46         0.38213
      43 -> 48        -0.13372
      44 -> 47         0.15383
 
 Excited State  10:      Singlet-A      5.4437 eV  227.76 nm  f=0.0853  <S**2>=0.000
      41 -> 45         0.13453
      41 -> 46        -0.11598
      42 -> 46         0.32038
      42 -> 48        -0.16247
      43 -> 46        -0.20248
      43 -> 47         0.21862
      43 -> 48        -0.11702
      44 -> 46        -0.14196
      44 -> 47        -0.29617
      44 -> 48         0.21124
      44 -> 50         0.15447
 SavETr:  write IOETrn=   770 NScale= 10 NData=  16 NLR=1 NState=   10 LETran=     190.

 **********************************************************************

            Population analysis using the SCF density.

 **********************************************************************

 Orbital symmetries:
       Occupied  (A1) (E) (T2) (A) (A) (A) (A) (A) (A) (A) (A) (A)
                 (A2) (A) (B2) (A) (A) (B) (A) (A) (A) (A) (A) (A)
                 (A1) (A) (T1) (A) (A) (A) (A) (A) (A) (A) (A) (A)
                 (A) (A) (A) (A) (B1) (A) (A) (A)
       Virtual   (A2) (A1) (A2) (A) (A) (A) (A) (A) (A) (A) (A) (A)
                 (A) (A) (A) (A) (A) (A) (A) (A) (E) (A) (A) (A)
                 (A) (A) (A) (A) (A) (A) (A) (A) (A) (E1) (A) (A)
 The electronic state is 1-A.
 Alpha  occ. eigenvalues --   -1.76931  -1.68031  -1.64569  -1.59050  -1.52270
 Alpha  occ. eigenvalues --   -1.50103  -1.34947  -1.23744  -1.18460  -1.14541
 Alpha  occ. eigenvalues --   -1.04123  -1.00259  -0.99202  -0.91997  -0.88778
 Alpha  occ. eigenvalues --   -0.84051  -0.77596  -0.73053  -0.72303  -0.68799
 Alpha  occ. eigenvalues --   -0.66305  -0.63077  -0.60430  -0.60118  -0.58971
 Alpha  occ. eigenvalues --   -0.58282  -0.57011  -0.55899  -0.55585  -0.52305
 Alpha  occ. eigenvalues --   -0.50918  -0.49887  -0.48944  -0.48346  -0.48170
 Alpha  occ. eigenvalues --   -0.47500  -0.46795  -0.43966  -0.37421  -0.36111
 Alpha  occ. eigenvalues --   -0.35658  -0.35321  -0.34436  -0.31861
 Alpha virt. eigenvalues --   -0.06587  -0.01637   0.00063   0.00931   0.04601
 Alpha virt. eigenvalues --    0.04928   0.05692   0.08379   0.08831   0.09393
 Alpha virt. eigenvalues --    0.10292   0.10674   0.11329   0.12687   0.13242
 Alpha virt. eigenvalues --    0.18197   0.18487   0.19361   0.20768   0.22815
 Alpha virt. eigenvalues --    0.24226   0.25488   0.26886   0.29691   0.30956
 Alpha virt. eigenvalues --    0.31933   0.36271   0.37566   0.40616   0.41518
 Alpha virt. eigenvalues --    0.42503   0.43978   0.44897   0.45685   0.48663
 Alpha virt. eigenvalues --    0.49839
     Molecular Orbital Coefficients:
                           1         2         3         4         5
                           O         O         O         O         O
     Eigenvalues --    -1.76931  -1.68031  -1.64569  -1.59050  -1.52270
   1 1   C  1S          0.13036   0.34111   0.11188  -0.11633   0.07114
   2        2PX        -0.01759   0.01772  -0.00940  -0.12194   0.04113
   3        2PY        -0.01733  -0.02585   0.04223   0.11893   0.09287
   4        2PZ         0.00001   0.00003   0.00001  -0.00002   0.00000
   5 2   C  1S          0.16438   0.30340  -0.02722  -0.21693  -0.10390
   6        2PX        -0.02922   0.04329   0.03932  -0.11507   0.06387
   7        2PY        -0.00185   0.04582   0.06566   0.00427   0.03117
   8        2PZ        -0.00002  -0.00003   0.00001   0.00002   0.00002
   9 3   C  1S          0.13935   0.30059   0.23300   0.27174   0.18578
  10        2PX        -0.01053   0.03906  -0.00047  -0.04399   0.10455
  11        2PY        -0.00904   0.03203   0.07622   0.13639   0.19788
  12        2PZ         0.00002   0.00006   0.00005   0.00006   0.00005
  13 4   C  1S          0.07051   0.25541   0.08117  -0.19266   0.11557
  14        2PX        -0.01974  -0.05346  -0.02938  -0.02330  -0.03352
  15        2PY        -0.02156  -0.07806  -0.00518   0.11760   0.00638
  16        2PZ         0.00000   0.00002   0.00000  -0.00002   0.00000
  17 5   C  1S          0.29368   0.15525  -0.23443  -0.01319  -0.19433
  18        2PX        -0.05706   0.06060   0.05040  -0.07180  -0.01627
  19        2PY        -0.05178   0.02294   0.14747   0.02753  -0.00514
  20        2PZ        -0.00003  -0.00001   0.00005   0.00000   0.00002
  21 6   C  1S          0.09174   0.22905  -0.01960  -0.27105  -0.03646
  22        2PX        -0.02453  -0.00809   0.03170  -0.02013   0.03990
  23        2PY         0.02646   0.09206   0.01603  -0.10225   0.00554
  24        2PZ        -0.00001  -0.00002   0.00001   0.00002   0.00001
  25 7   C  1S          0.29895   0.05247  -0.02113   0.14909  -0.24640
  26        2PX        -0.03319   0.08415  -0.02327  -0.02872  -0.00688
  27        2PY        -0.04231   0.02993   0.13741   0.04445  -0.10538
  28        2PZ         0.00000  -0.00001   0.00000   0.00000   0.00001
  29 8   O  1S          0.28772   0.07719  -0.35454  -0.02117  -0.12970
  30        2PX        -0.02079   0.02891   0.01174  -0.02459  -0.04353
  31        2PY         0.10439   0.03397  -0.12355  -0.00661  -0.05871
  32        2PZ         0.00005   0.00001  -0.00006  -0.00000  -0.00001
  33 9   C  1S          0.19544   0.13659   0.18438   0.24616  -0.23841
  34        2PX        -0.02043   0.07380  -0.01404  -0.00701   0.12623
  35        2PY        -0.03675   0.01162   0.04007   0.03677   0.09142
  36        2PZ         0.00002   0.00001   0.00003   0.00003  -0.00004
  37 10  C  1S          0.37943  -0.15995  -0.03622   0.07749   0.02996
  38        2PX         0.00575   0.07049  -0.07728   0.06853  -0.09124
  39        2PY        -0.07234   0.04373   0.16949   0.01246  -0.25342
  40        2PZ        -0.00004   0.00001   0.00001  -0.00001  -0.00000
  41 11  C  1S          0.13800   0.03124   0.18408   0.18882  -0.25113
  42        2PX         0.00334   0.04812   0.00878   0.05147   0.04548
  43        2PY        -0.05735   0.00467  -0.05276  -0.04675   0.11632
  44        2PZ         0.00000  -0.00000   0.00000   0.00000  -0.00001
  45 12  O  1S          0.09002   0.26444   0.25331   0.34786   0.38738
  46        2PX        -0.00821  -0.01152  -0.02077  -0.03947  -0.00532
  47        2PY        -0.03638  -0.10478  -0.09568  -0.12563  -0.13659
  48        2PZ        -0.00001  -0.00002  -0.00003  -0.00004  -0.00004
  49 13  C  1S          0.05480   0.20088   0.02262  -0.27248   0.02397
  50        2PX        -0.02283  -0.07099  -0.00350   0.08432   0.00238
  51        2PY         0.01288   0.05542   0.01398  -0.06754   0.01796
  52        2PZ        -0.00000  -0.00001  -0.00000   0.00001  -0.00000
  53 14  C  1S          0.05158   0.20544   0.04083  -0.25700   0.05803
  54        2PX        -0.02395  -0.08814  -0.01810   0.09402  -0.02077
  55        2PY        -0.00684  -0.02462   0.00203   0.04697   0.00864
  56        2PZ        -0.00000   0.00000  -0.00000  -0.00000  -0.00000
  57 15  C  1S          0.15517  -0.08211   0.21735   0.04355  -0.24701
  58        2PX         0.02505   0.03040   0.00735   0.08686  -0.10092
  59        2PY        -0.05917   0.04904  -0.07040   0.02161   0.04104
  60        2PZ        -0.00001   0.00001  -0.00002  -0.00000   0.00002
  61 16  C  1S          0.27324  -0.22891   0.29472  -0.10018  -0.09045
  62        2PX         0.00823   0.07876  -0.10082   0.16024  -0.11710
  63        2PY        -0.04670   0.05133   0.02245   0.04597  -0.12823
  64        2PZ        -0.00003   0.00004  -0.00004   0.00003  -0.00001
  65 17  O  1S          0.23980  -0.32603   0.41162  -0.33873   0.11453
  66        2PX         0.05762  -0.06204   0.05782  -0.04293   0.02763
  67        2PY         0.04461  -0.06690   0.10077  -0.07569   0.00466
  68        2PZ        -0.00001   0.00001  -0.00002   0.00002   0.00000
  69 18  O  1S          0.41201  -0.20192  -0.26173   0.05718   0.40163
  70        2PX         0.08956  -0.02160  -0.08994   0.02740   0.05828
  71        2PY         0.09355  -0.05840  -0.02294   0.00192   0.07649
  72        2PZ         0.00001  -0.00001  -0.00001   0.00000   0.00002
  73 19  H  1S          0.02269   0.08333   0.03770  -0.03059   0.06229
  74 20  H  1S          0.03677   0.06639  -0.02519  -0.07799  -0.02630
  75 21  H  1S          0.03908   0.02520   0.06639   0.07726  -0.05203
  76 22  H  1S          0.01343   0.05141   0.00503  -0.07642   0.00658
  77 23  H  1S          0.01234   0.05297   0.01143  -0.07079   0.01938
  78 24  H  1S          0.04643  -0.03656   0.08068  -0.00752  -0.06541
  79 25  H  1S          0.09542  -0.13364   0.18286  -0.14413   0.03099
  80 26  H  1S          0.20824  -0.06522  -0.16780   0.03587   0.13871
                           6         7         8         9        10
                           O         O         O         O         O
     Eigenvalues --    -1.50103  -1.34947  -1.23744  -1.18460  -1.14541
   1 1   C  1S         -0.04995   0.26865   0.20491  -0.26402   0.02629
   2        2PX        -0.07759  -0.16679   0.12662  -0.05639  -0.02013
   3        2PY         0.04362  -0.06531   0.14779   0.02725  -0.02590
   4        2PZ        -0.00001   0.00001  -0.00001  -0.00002  -0.00000
   5 2   C  1S          0.04193   0.22505  -0.23514  -0.25747  -0.02870
   6        2PX        -0.11498  -0.13565  -0.06147  -0.06042  -0.02579
   7        2PY        -0.08456   0.15308   0.15676  -0.01034   0.05815
   8        2PZ        -0.00002  -0.00004  -0.00001   0.00003  -0.00001
   9 3   C  1S          0.11728   0.12820  -0.02056   0.04013   0.07142
  10        2PX         0.02344  -0.00078   0.13578  -0.17583  -0.18052
  11        2PY         0.09214  -0.27351  -0.07920   0.01079  -0.14073
  12        2PZ         0.00003  -0.00001  -0.00001  -0.00000  -0.00002
  13 4   C  1S         -0.13064  -0.05689   0.44880  -0.07937   0.05074
  14        2PX        -0.02486  -0.09389  -0.00082   0.18067   0.05296
  15        2PY         0.07229   0.02799   0.00615  -0.02692  -0.03099
  16        2PZ        -0.00001  -0.00001   0.00002   0.00002   0.00001
  17 5   C  1S          0.29355   0.11062   0.01650   0.05177  -0.04266
  18        2PX         0.02847   0.04370  -0.15174  -0.18188   0.03102
  19        2PY        -0.19869   0.29774  -0.07225   0.06961  -0.04668
  20        2PZ        -0.00008   0.00006  -0.00005  -0.00001  -0.00002
  21 6   C  1S         -0.04766  -0.11696  -0.44003  -0.06272  -0.11501
  22        2PX        -0.08668  -0.08231   0.00790   0.18324  -0.00216
  23        2PY        -0.05942   0.00558  -0.00238  -0.03603   0.01122
  24        2PZ        -0.00000   0.00000   0.00002   0.00002   0.00000
  25 7   C  1S         -0.09247   0.19598   0.08437   0.28876  -0.22739
  26        2PX         0.12475   0.16680  -0.02633   0.04895   0.15966
  27        2PY        -0.06940   0.03537  -0.04344   0.01974   0.06491
  28        2PZ        -0.00002  -0.00001  -0.00000  -0.00002  -0.00003
  29 8   O  1S          0.45207  -0.28523   0.16149  -0.00944   0.08311
  30        2PX         0.05795  -0.01521  -0.04813  -0.05322  -0.02380
  31        2PY         0.15988  -0.06698   0.04528   0.01333  -0.01221
  32        2PZ         0.00006  -0.00004   0.00001  -0.00001   0.00001
  33 9   C  1S         -0.09036   0.12015  -0.07677   0.23727   0.23880
  34        2PX         0.09742   0.17723  -0.02697   0.05928   0.04421
  35        2PY         0.03685  -0.14767  -0.07664  -0.06955   0.21603
  36        2PZ        -0.00002  -0.00001  -0.00000   0.00000   0.00000
  37 10  C  1S         -0.24440  -0.00365   0.02283   0.01819  -0.32505
  38        2PX         0.00197   0.01848   0.06592   0.13381  -0.02627
  39        2PY         0.04419  -0.06436   0.07250   0.02744  -0.22761
  40        2PZ         0.00001  -0.00000  -0.00001  -0.00002   0.00001
  41 11  C  1S         -0.13003  -0.21946  -0.06975  -0.10779   0.38747
  42        2PX         0.02748   0.07061  -0.06322   0.18518   0.07777
  43        2PY         0.06661   0.02239  -0.02190  -0.01824   0.08466
  44        2PZ        -0.00001  -0.00002   0.00001  -0.00004   0.00001
  45 12  O  1S          0.20705  -0.22172  -0.10486   0.01569  -0.22030
  46        2PX        -0.01188   0.02502   0.06920  -0.05412  -0.06659
  47        2PY        -0.07183   0.04709   0.01228   0.00329   0.03929
  48        2PZ        -0.00002   0.00003   0.00001  -0.00000   0.00002
  49 13  C  1S         -0.16095  -0.23142  -0.21211   0.31785  -0.02901
  50        2PX         0.02965   0.01308   0.11418   0.09678   0.04053
  51        2PY        -0.05386  -0.03592   0.13733   0.06119   0.05597
  52        2PZ         0.00000   0.00000  -0.00001   0.00000  -0.00001
  53 14  C  1S         -0.18039  -0.21080   0.23105   0.30695   0.09876
  54        2PX         0.05560   0.01672  -0.05820   0.07265  -0.00150
  55        2PY         0.02562   0.04528   0.16606  -0.09857   0.02709
  56        2PZ        -0.00000  -0.00001  -0.00002   0.00003  -0.00000
  57 15  C  1S         -0.08729  -0.24370   0.04195  -0.31626   0.08057
  58        2PX        -0.09262  -0.07111  -0.00930  -0.01995   0.04633
  59        2PY         0.00490   0.00503  -0.03017  -0.01136   0.19110
  60        2PZ         0.00000   0.00001  -0.00000  -0.00000  -0.00001
  61 16  C  1S         -0.00597  -0.08671   0.03658  -0.12447  -0.24560
  62        2PX        -0.20175  -0.08744   0.02368  -0.07153  -0.18210
  63        2PY        -0.01072  -0.09480   0.03762  -0.10798   0.06229
  64        2PZ        -0.00003  -0.00001  -0.00000  -0.00002  -0.00001
  65 17  O  1S          0.31990   0.11400  -0.01155   0.15602   0.11801
  66        2PX         0.01055   0.00503  -0.00959  -0.03196  -0.08217
  67        2PY         0.08176   0.01018   0.00960   0.01220   0.03938
  68        2PZ        -0.00003  -0.00001  -0.00000  -0.00003  -0.00004
  69 18  O  1S         -0.30900   0.05915  -0.12241  -0.11324   0.23150
  70        2PX        -0.04048  -0.00444   0.01279   0.01559   0.05498
  71        2PY        -0.07273   0.02286  -0.02547  -0.01096  -0.08328
  72        2PZ        -0.00001   0.00000  -0.00001  -0.00001   0.00001
  73 19  H  1S         -0.02489  -0.02443   0.21658  -0.03891   0.00539
  74 20  H  1S          0.02264  -0.05630  -0.20740  -0.03162  -0.05981
  75 21  H  1S         -0.02340  -0.09136  -0.05432  -0.04187   0.23664
  76 22  H  1S         -0.04812  -0.09365  -0.10248   0.17258  -0.01670
  77 23  H  1S         -0.05551  -0.08471   0.11244   0.16702   0.05229
  78 24  H  1S         -0.00178  -0.08572   0.01393  -0.14616   0.08937
  79 25  H  1S          0.14743   0.03839   0.00454   0.06259   0.09228
  80 26  H  1S         -0.07342  -0.01010  -0.00236  -0.01293   0.13035
                          11        12        13        14        15
                           O         O         O         O         O
     Eigenvalues --    -1.04123  -1.00259  -0.99202  -0.91997  -0.88778
   1 1   C  1S          0.02617  -0.18424  -0.19014  -0.11378   0.07932
   2        2PX        -0.13039  -0.12579   0.18609  -0.04401   0.01476
   3        2PY         0.01941  -0.13012  -0.15307   0.29201   0.06151
   4        2PZ        -0.00001   0.00001   0.00005  -0.00007  -0.00001
   5 2   C  1S         -0.03812   0.20976   0.15775  -0.10441  -0.02832
   6        2PX        -0.10798  -0.22885   0.06735  -0.14131  -0.09662
   7        2PY         0.08665  -0.09510  -0.12678  -0.26645   0.03599
   8        2PZ        -0.00000  -0.00002   0.00004   0.00004  -0.00001
   9 3   C  1S          0.02295  -0.02239  -0.25852   0.05190  -0.06669
  10        2PX         0.14905  -0.09140  -0.05021   0.07251   0.13751
  11        2PY        -0.01370   0.05685   0.24487  -0.07648   0.00359
  12        2PZ         0.00002   0.00001   0.00001  -0.00002   0.00001
  13 4   C  1S         -0.15118  -0.04684   0.12307   0.26476   0.01622
  14        2PX        -0.02682   0.26810   0.12356   0.08824  -0.10611
  15        2PY         0.01978  -0.01770  -0.05221   0.29946   0.06172
  16        2PZ        -0.00001   0.00003   0.00003   0.00001  -0.00001
  17 5   C  1S          0.12597   0.19704   0.11118   0.05065   0.16882
  18        2PX        -0.12266   0.24388  -0.04041   0.10224  -0.07613
  19        2PY         0.17752   0.10777   0.14513   0.04735   0.06869
  20        2PZ         0.00004   0.00005   0.00009   0.00005   0.00001
  21 6   C  1S         -0.05034  -0.16936   0.06649   0.26571  -0.04532
  22        2PX         0.13542  -0.19708  -0.17504  -0.03144   0.08655
  23        2PY        -0.02242   0.00347   0.07837  -0.30980  -0.04041
  24        2PZ         0.00002   0.00000  -0.00000  -0.00001   0.00001
  25 7   C  1S          0.11493  -0.11820   0.22832   0.02859   0.05668
  26        2PX         0.13880   0.12452  -0.03212   0.04455   0.03134
  27        2PY        -0.15271  -0.00304  -0.11543   0.07297  -0.23441
  28        2PZ         0.00001   0.00001   0.00004  -0.00001   0.00003
  29 8   O  1S         -0.12381  -0.12047  -0.22700  -0.11340  -0.11687
  30        2PX        -0.09512   0.11694  -0.03349   0.08999   0.02433
  31        2PY        -0.00028   0.02431   0.01466  -0.00156   0.09964
  32        2PZ        -0.00000   0.00000   0.00002   0.00002   0.00000
  33 9   C  1S         -0.22803  -0.07233  -0.05990   0.05183  -0.19251
  34        2PX         0.09243   0.08746  -0.15775   0.00556  -0.05824
  35        2PY        -0.14020   0.01907  -0.04277  -0.06858   0.07513
  36        2PZ        -0.00001  -0.00001   0.00004  -0.00000   0.00002
  37 10  C  1S         -0.15332   0.02939  -0.02184  -0.05008   0.19079
  38        2PX         0.17193  -0.21705   0.26125  -0.00323  -0.03139
  39        2PY        -0.07197  -0.03235  -0.03095  -0.03507  -0.09963
  40        2PZ         0.00001   0.00003  -0.00003   0.00000  -0.00001
  41 11  C  1S         -0.08442  -0.03736   0.08708  -0.01429   0.29947
  42        2PX        -0.27102  -0.04746  -0.00190  -0.02991  -0.10314
  43        2PY         0.06112   0.04530   0.02265  -0.02913   0.23402
  44        2PZ         0.00006   0.00002   0.00001  -0.00000   0.00009
  45 12  O  1S          0.09063   0.10550   0.21358  -0.10591  -0.02034
  46        2PX         0.05813  -0.04972  -0.03324   0.08425   0.03854
  47        2PY        -0.01549   0.01426   0.03912  -0.02842   0.00345
  48        2PZ        -0.00000  -0.00000  -0.00001   0.00000   0.00001
  49 13  C  1S          0.21011  -0.09304  -0.25551  -0.02623   0.11045
  50        2PX         0.08070   0.17504  -0.11323   0.01961   0.06341
  51        2PY        -0.02384   0.17645   0.07319  -0.24571  -0.07060
  52        2PZ         0.00001  -0.00001  -0.00001   0.00002   0.00001
  53 14  C  1S          0.02837   0.34248   0.02999  -0.01475  -0.06733
  54        2PX         0.08592   0.13330  -0.10546   0.10428   0.03001
  55        2PY        -0.13210   0.07328   0.16458   0.23196  -0.06434
  56        2PZ         0.00002   0.00002  -0.00002  -0.00001   0.00001
  57 15  C  1S          0.38462   0.09679  -0.03897   0.02834  -0.06144
  58        2PX        -0.12541  -0.04614   0.04247  -0.00329   0.15898
  59        2PY         0.06479  -0.02008   0.09302   0.01844   0.28670
  60        2PZ         0.00002   0.00002  -0.00002  -0.00000   0.00000
  61 16  C  1S         -0.04754   0.16527  -0.22960  -0.04531  -0.11225
  62        2PX        -0.06893   0.02554  -0.05057  -0.01286  -0.02175
  63        2PY         0.29187  -0.03826   0.05804   0.03430  -0.28880
  64        2PZ         0.00002   0.00003  -0.00003  -0.00000  -0.00001
  65 17  O  1S         -0.06209  -0.13176   0.14408   0.01034   0.09647
  66        2PX        -0.11830   0.16074  -0.20355  -0.04254   0.08464
  67        2PY         0.09877  -0.04162   0.05204   0.01329  -0.12522
  68        2PZ        -0.00004   0.00009  -0.00010  -0.00002   0.00004
  69 18  O  1S          0.04835   0.05516  -0.01656   0.08240  -0.17968
  70        2PX         0.11059  -0.10726   0.09542  -0.01422  -0.09750
  71        2PY        -0.11734   0.10277  -0.05785  -0.01644   0.31241
  72        2PZ        -0.00000   0.00002  -0.00001   0.00000   0.00000
  73 19  H  1S         -0.06161  -0.00971   0.04508   0.32381   0.03658
  74 20  H  1S         -0.03272  -0.06318   0.00173   0.32466  -0.01058
  75 21  H  1S         -0.03534   0.00637   0.06149  -0.03356   0.28238
  76 22  H  1S          0.14847  -0.03457  -0.20783   0.09390   0.11636
  77 23  H  1S          0.03447   0.25999  -0.00970   0.10265  -0.03028
  78 24  H  1S          0.27221   0.05650   0.00338   0.02419   0.00726
  79 25  H  1S          0.08579  -0.12416   0.15344   0.02955  -0.06886
  80 26  H  1S          0.11040  -0.10081   0.04916  -0.00351  -0.21252
                          16        17        18        19        20
                           O         O         O         O         O
     Eigenvalues --    -0.84051  -0.77596  -0.73053  -0.72303  -0.68799
   1 1   C  1S         -0.12647  -0.01799  -0.09082   0.00771   0.02702
   2        2PX         0.09937   0.12548   0.09430  -0.19279  -0.13996
   3        2PY        -0.03038  -0.03945  -0.00807  -0.00704  -0.30416
   4        2PZ         0.00001   0.00004  -0.00003  -0.00002   0.00010
   5 2   C  1S         -0.14066   0.00884  -0.09666  -0.04324   0.05839
   6        2PX         0.10264  -0.12709  -0.06669   0.16419  -0.11322
   7        2PY         0.00306   0.03718   0.00171   0.04567   0.32855
   8        2PZ         0.00003  -0.00000  -0.00007   0.00000  -0.00006
   9 3   C  1S          0.05565  -0.24967  -0.09122   0.06078  -0.07016
  10        2PX        -0.25800   0.08795  -0.05185   0.12204  -0.11917
  11        2PY         0.00632   0.09141   0.01232  -0.08855  -0.03868
  12        2PZ        -0.00002   0.00003  -0.00003   0.00000   0.00006
  13 4   C  1S          0.13449   0.08570   0.08002  -0.13298   0.05904
  14        2PX         0.10414  -0.07729   0.02211   0.13662   0.25108
  15        2PY        -0.05564   0.05438  -0.06230  -0.07320   0.03700
  16        2PZ         0.00002   0.00000  -0.00001   0.00001   0.00007
  17 5   C  1S          0.05279   0.13084   0.03455  -0.22989  -0.03407
  18        2PX        -0.24288   0.01608   0.05239  -0.08202  -0.00572
  19        2PY         0.06069   0.11824  -0.02686   0.01089   0.09772
  20        2PZ        -0.00003   0.00003  -0.00015  -0.00006  -0.00001
  21 6   C  1S          0.12793  -0.08145  -0.05817   0.15145  -0.01602
  22        2PX         0.12762   0.10511   0.14416  -0.04195   0.25268
  23        2PY         0.01198   0.01507   0.06426  -0.04668  -0.09574
  24        2PZ        -0.00000   0.00001  -0.00003  -0.00001   0.00000
  25 7   C  1S          0.07847   0.03800   0.02484   0.10883  -0.10837
  26        2PX         0.16707   0.21762   0.18393  -0.01073   0.02073
  27        2PY        -0.14518   0.11959   0.28450   0.16339  -0.08628
  28        2PZ        -0.00003  -0.00003  -0.00016  -0.00006   0.00007
  29 8   O  1S         -0.03456  -0.01874   0.09799   0.22708   0.15996
  30        2PX        -0.09229  -0.05470   0.15595  -0.07658  -0.11128
  31        2PY         0.04485  -0.02709   0.00131  -0.21981  -0.16163
  32        2PZ        -0.00001   0.00000  -0.00011  -0.00010  -0.00009
  33 9   C  1S          0.06002   0.02049   0.14009  -0.03142  -0.10673
  34        2PX         0.23814  -0.22008   0.01104   0.06575   0.08510
  35        2PY         0.06930  -0.12823  -0.24627  -0.27066   0.07866
  36        2PZ        -0.00005   0.00007  -0.00005  -0.00001   0.00004
  37 10  C  1S         -0.01372  -0.27120  -0.03893  -0.01419   0.06926
  38        2PX        -0.02931  -0.10906  -0.20679   0.00342  -0.10350
  39        2PY        -0.08139   0.10929  -0.18610   0.06513   0.09986
  40        2PZ         0.00001   0.00003  -0.00006  -0.00003   0.00007
  41 11  C  1S         -0.08577   0.10240  -0.10746   0.00991   0.02574
  42        2PX         0.07035   0.00340  -0.14676  -0.27444  -0.02841
  43        2PY         0.15216  -0.07182  -0.14528   0.06572   0.07666
  44        2PZ         0.00001   0.00000  -0.00004   0.00009   0.00007
  45 12  O  1S         -0.05124   0.18652   0.15699   0.07868   0.15837
  46        2PX        -0.12756   0.08105   0.04632   0.09395  -0.09577
  47        2PY         0.00414   0.11120   0.10346   0.03615   0.18139
  48        2PZ        -0.00001   0.00004   0.00001   0.00002   0.00009
  49 13  C  1S         -0.06629   0.10425   0.07242  -0.14792   0.01413
  50        2PX        -0.23663   0.03611  -0.10226  -0.14232  -0.07774
  51        2PY        -0.06446  -0.07803   0.01053   0.07041  -0.32011
  52        2PZ        -0.00000   0.00001  -0.00003  -0.00001   0.00004
  53 14  C  1S         -0.07492  -0.10645  -0.06708   0.14140  -0.05421
  54        2PX        -0.20575  -0.06659  -0.21875   0.08754  -0.03692
  55        2PY         0.13603  -0.04616  -0.03726   0.10842   0.30216
  56        2PZ        -0.00004  -0.00001  -0.00005   0.00002  -0.00002
  57 15  C  1S          0.11362  -0.07981   0.11398   0.03783  -0.03385
  58        2PX        -0.25274   0.14441   0.01106   0.12168   0.08293
  59        2PY         0.01101  -0.04446   0.13816   0.28924  -0.09561
  60        2PZ         0.00007  -0.00003  -0.00004   0.00001   0.00002
  61 16  C  1S          0.17228   0.10888  -0.14624  -0.09420   0.05721
  62        2PX        -0.17690  -0.16856   0.09324  -0.06710   0.21474
  63        2PY         0.01120  -0.08873  -0.01065  -0.22789   0.00525
  64        2PZ         0.00005   0.00000  -0.00005  -0.00001   0.00003
  65 17  O  1S         -0.17494   0.00612   0.04406   0.11434   0.02324
  66        2PX         0.34275   0.37400  -0.21286   0.17455  -0.22826
  67        2PY         0.02853  -0.07980  -0.05055  -0.17911  -0.02571
  68        2PZ         0.00021   0.00023  -0.00017   0.00013  -0.00016
  69 18  O  1S         -0.09667   0.15532   0.12101  -0.02680  -0.04293
  70        2PX        -0.00102  -0.01328  -0.27633   0.00859   0.01916
  71        2PY         0.09275  -0.32845   0.28509  -0.08556  -0.03674
  72        2PZ         0.00001  -0.00000  -0.00001  -0.00002   0.00003
  73 19  H  1S          0.03828   0.07770   0.00375  -0.09814   0.08374
  74 20  H  1S          0.03839  -0.06610  -0.08492   0.11864   0.02665
  75 21  H  1S          0.06541   0.00249  -0.17712   0.01470   0.07690
  76 22  H  1S         -0.12810   0.10832  -0.02594  -0.19100   0.12021
  77 23  H  1S         -0.13698  -0.10964  -0.19643   0.16171   0.02567
  78 24  H  1S          0.18514  -0.14599   0.12155   0.08628  -0.11224
  79 25  H  1S         -0.18595  -0.22074   0.10271  -0.13820   0.10177
  80 26  H  1S         -0.04209   0.15931  -0.23788   0.07130   0.04987
                          21        22        23        24        25
                           O         O         O         O         O
     Eigenvalues --    -0.66305  -0.63077  -0.60430  -0.60118  -0.58971
   1 1   C  1S         -0.08538   0.13585  -0.12677   0.00015  -0.09348
   2        2PX        -0.10176  -0.07493  -0.17007   0.00010  -0.16692
   3        2PY         0.15509  -0.03180  -0.10599   0.00033   0.13778
   4        2PZ        -0.00009  -0.00013   0.00044   0.21081  -0.00005
   5 2   C  1S         -0.12051  -0.07979   0.16749  -0.00028  -0.00422
   6        2PX        -0.06993   0.05850   0.11095  -0.00017   0.01890
   7        2PY        -0.09885   0.16319  -0.02585   0.00005  -0.14079
   8        2PZ        -0.00000  -0.00019   0.00046   0.22200   0.00002
   9 3   C  1S          0.20383  -0.06878   0.08935  -0.00024  -0.02521
  10        2PX         0.06438   0.15804   0.01383   0.00023   0.14717
  11        2PY        -0.00109  -0.04218   0.07504  -0.00015  -0.14690
  12        2PZ        -0.00003  -0.00013   0.00032   0.24032  -0.00006
  13 4   C  1S         -0.02840  -0.12175   0.00381  -0.00012  -0.03354
  14        2PX         0.12405  -0.00395   0.17217  -0.00026   0.04603
  15        2PY        -0.12327  -0.12964   0.31247  -0.00039   0.22786
  16        2PZ        -0.00003  -0.00008   0.00034   0.11888   0.00004
  17 5   C  1S          0.19845   0.05124  -0.02938   0.00006  -0.03194
  18        2PX        -0.06354  -0.19874  -0.01414  -0.00014   0.00941
  19        2PY         0.01421  -0.04073  -0.01982   0.00017   0.14139
  20        2PZ         0.00000  -0.00029   0.00038   0.28119  -0.00011
  21 6   C  1S          0.05759   0.10130  -0.02268   0.00015   0.05545
  22        2PX         0.14534   0.07807   0.05127   0.00006   0.04755
  23        2PY         0.04094  -0.15248   0.35724  -0.00045   0.19503
  24        2PZ        -0.00001  -0.00010   0.00034   0.12418   0.00004
  25 7   C  1S         -0.07839  -0.04308  -0.05865   0.00006   0.01861
  26        2PX         0.13619   0.14884  -0.03873   0.00039   0.09000
  27        2PY        -0.12365  -0.06193  -0.03461   0.00011   0.02048
  28        2PZ         0.00002  -0.00030   0.00034   0.33705  -0.00024
  29 8   O  1S         -0.18243  -0.07403   0.01092   0.00024   0.15798
  30        2PX        -0.02914  -0.05411  -0.13261   0.00009  -0.03647
  31        2PY         0.20571   0.16021   0.02033  -0.00044  -0.23545
  32        2PZ         0.00008  -0.00015   0.00029   0.21608  -0.00024
  33 9   C  1S         -0.12047   0.03101   0.03687  -0.00003  -0.04508
  34        2PX         0.08519  -0.22630  -0.04427  -0.00016  -0.02615
  35        2PY         0.05985   0.08794   0.08137  -0.00008  -0.06728
  36        2PZ        -0.00002  -0.00019   0.00025   0.28503  -0.00012
  37 10  C  1S         -0.06397  -0.11164  -0.00682  -0.00005   0.00649
  38        2PX        -0.14844  -0.01040   0.05987  -0.00015  -0.05944
  39        2PY         0.16198  -0.26695  -0.13496  -0.00025  -0.05620
  40        2PZ         0.00007  -0.00029   0.00027   0.34184  -0.00033
  41 11  C  1S          0.05017   0.08531  -0.01294   0.00009   0.10111
  42        2PX        -0.17575   0.05657  -0.09194   0.00031   0.08163
  43        2PY        -0.02114  -0.25570  -0.26959   0.00013   0.22347
  44        2PZ         0.00004  -0.00026   0.00007   0.19803  -0.00006
  45 12  O  1S         -0.18832   0.09407  -0.13251   0.00018   0.08849
  46        2PX        -0.00341   0.11281   0.04952   0.00016   0.19595
  47        2PY        -0.23035   0.07948  -0.21060   0.00017   0.15358
  48        2PZ        -0.00009  -0.00006   0.00015   0.18012   0.00005
  49 13  C  1S         -0.00839  -0.11596   0.08050  -0.00015   0.04408
  50        2PX        -0.24868  -0.11905  -0.08531  -0.00016  -0.19452
  51        2PY         0.12487  -0.03283  -0.11657   0.00035   0.19949
  52        2PZ        -0.00004  -0.00005   0.00028   0.08371   0.00003
  53 14  C  1S          0.06729   0.10218  -0.08775   0.00020   0.01120
  54        2PX        -0.18346   0.14908   0.06680  -0.00003   0.01245
  55        2PY        -0.00884   0.13515   0.04396  -0.00014  -0.18323
  56        2PZ        -0.00005  -0.00003   0.00026   0.08212   0.00007
  57 15  C  1S         -0.01246  -0.00081   0.07490  -0.00011  -0.10766
  58        2PX         0.26112   0.14217   0.13057  -0.00006  -0.01293
  59        2PY        -0.08808  -0.19540   0.05618  -0.00038  -0.18397
  60        2PZ        -0.00004  -0.00025   0.00009   0.20163  -0.00021
  61 16  C  1S          0.06118   0.01847  -0.07089   0.00014   0.10506
  62        2PX         0.19834  -0.14875  -0.09295   0.00001  -0.00656
  63        2PY        -0.02489   0.17335   0.00603   0.00025   0.08477
  64        2PZ         0.00002  -0.00026   0.00023   0.29791  -0.00039
  65 17  O  1S          0.09541  -0.05774   0.08151  -0.00010  -0.16585
  66        2PX        -0.15326   0.08803   0.10620  -0.00033  -0.05081
  67        2PY        -0.14482   0.12972  -0.11688   0.00031   0.30921
  68        2PZ        -0.00010  -0.00014   0.00037   0.27996  -0.00058
  69 18  O  1S          0.09064  -0.01801  -0.11334   0.00003  -0.02336
  70        2PX        -0.06469  -0.02370   0.14915  -0.00020  -0.00404
  71        2PY        -0.21346   0.28311   0.15460   0.00030   0.10123
  72        2PZ         0.00002  -0.00019   0.00025   0.29717  -0.00030
  73 19  H  1S         -0.09426  -0.16049   0.28286  -0.00038   0.19172
  74 20  H  1S         -0.02800   0.15431  -0.31973   0.00043  -0.13911
  75 21  H  1S         -0.01943  -0.15614  -0.24738   0.00027   0.24476
  76 22  H  1S         -0.22139  -0.11574   0.04596  -0.00036  -0.22048
  77 23  H  1S         -0.10665   0.20534   0.02491   0.00005  -0.03797
  78 24  H  1S         -0.21219  -0.19628  -0.01980  -0.00019  -0.14620
  79 25  H  1S          0.02092  -0.00368  -0.09554   0.00014   0.13326
  80 26  H  1S          0.05270  -0.12255   0.02237  -0.00016  -0.02204
                          26        27        28        29        30
                           O         O         O         O         O
     Eigenvalues --    -0.58282  -0.57011  -0.55899  -0.55585  -0.52305
   1 1   C  1S          0.03647  -0.00471  -0.03228   0.00008  -0.03709
   2        2PX        -0.07484   0.22911   0.01750  -0.00008   0.02068
   3        2PY        -0.00892  -0.02392   0.10517  -0.00055  -0.03835
   4        2PZ         0.00011   0.00022  -0.00151  -0.30723  -0.00004
   5 2   C  1S         -0.00851   0.00463  -0.03580   0.00019   0.02349
   6        2PX         0.19341   0.24066  -0.06789   0.00049   0.18114
   7        2PY         0.00514  -0.04699  -0.10942   0.00034  -0.04466
   8        2PZ         0.00010   0.00024  -0.00128  -0.29347  -0.00000
   9 3   C  1S         -0.03876  -0.04442   0.01496  -0.00005   0.08795
  10        2PX        -0.07000  -0.15732  -0.14567   0.00072  -0.11052
  11        2PY        -0.23917   0.10828  -0.24002   0.00116  -0.00213
  12        2PZ         0.00008   0.00006  -0.00132  -0.25010  -0.00003
  13 4   C  1S         -0.03793   0.00962   0.06215  -0.00028   0.05036
  14        2PX        -0.02403  -0.26744  -0.01662   0.00003   0.07009
  15        2PY         0.16924   0.14137  -0.00899   0.00038  -0.06898
  16        2PZ         0.00012   0.00014  -0.00106  -0.21622  -0.00005
  17 5   C  1S          0.01855   0.00092   0.00681  -0.00008  -0.08776
  18        2PX        -0.12708  -0.29579   0.04901  -0.00033  -0.07615
  19        2PY        -0.29469   0.17629   0.06149  -0.00000  -0.12629
  20        2PZ        -0.00008   0.00000  -0.00064  -0.19207  -0.00002
  21 6   C  1S          0.04445   0.07406  -0.00359   0.00005  -0.02898
  22        2PX        -0.01044  -0.21020  -0.13141   0.00055  -0.21075
  23        2PY         0.16096   0.03127  -0.12797   0.00084   0.05170
  24        2PZ         0.00011   0.00017  -0.00096  -0.20814  -0.00003
  25 7   C  1S         -0.02840   0.03255  -0.11608   0.00056   0.06103
  26        2PX        -0.04397   0.31663  -0.00445   0.00021  -0.00159
  27        2PY         0.03407  -0.08604  -0.09958   0.00038   0.10380
  28        2PZ         0.00006  -0.00016  -0.00000  -0.00663   0.00010
  29 8   O  1S         -0.25659   0.10897  -0.01933   0.00027  -0.04170
  30        2PX        -0.00072  -0.22338  -0.09137   0.00029   0.04124
  31        2PY         0.48510  -0.15749  -0.06247   0.00005   0.12573
  32        2PZ         0.00021  -0.00013  -0.00055  -0.17499   0.00009
  33 9   C  1S          0.05595   0.01155   0.03051  -0.00015  -0.04860
  34        2PX         0.10167   0.09442   0.15218  -0.00077   0.23221
  35        2PY        -0.01246   0.01226   0.12743  -0.00056  -0.20612
  36        2PZ         0.00007  -0.00009  -0.00051  -0.07564   0.00006
  37 10  C  1S         -0.00488  -0.08158   0.04169  -0.00021  -0.03271
  38        2PX        -0.02434  -0.23634   0.00768  -0.00008   0.03942
  39        2PY         0.12330   0.00459  -0.10335   0.00033  -0.05841
  40        2PZ         0.00018  -0.00015   0.00102   0.22695   0.00024
  41 11  C  1S         -0.03846  -0.02572  -0.01377   0.00010   0.02839
  42        2PX         0.01152  -0.05241  -0.12631   0.00068  -0.35614
  43        2PY         0.07348   0.00186  -0.13622   0.00066   0.12248
  44        2PZ         0.00013  -0.00007   0.00001   0.03311   0.00022
  45 12  O  1S          0.22993  -0.05111   0.20325  -0.00094  -0.01594
  46        2PX         0.07176  -0.11197   0.01665   0.00002  -0.10814
  47        2PY         0.40509  -0.06327   0.38182  -0.00169  -0.02158
  48        2PZ         0.00025   0.00001  -0.00100  -0.22808  -0.00006
  49 13  C  1S         -0.00398  -0.06307   0.01748  -0.00005  -0.00424
  50        2PX        -0.06205   0.12986   0.12150  -0.00064   0.23182
  51        2PY        -0.03103   0.04491   0.19137  -0.00081  -0.11106
  52        2PZ         0.00012   0.00016  -0.00085  -0.17234  -0.00003
  53 14  C  1S         -0.02716  -0.03799   0.00774  -0.00007  -0.04267
  54        2PX         0.17631   0.27341  -0.16266   0.00099  -0.10029
  55        2PY        -0.00101  -0.10669  -0.18436   0.00068   0.08644
  56        2PZ         0.00015   0.00022  -0.00088  -0.17489  -0.00010
  57 15  C  1S         -0.00110   0.04165   0.06777  -0.00031  -0.02103
  58        2PX        -0.07468   0.05902   0.15947  -0.00071   0.33966
  59        2PY         0.04853  -0.07724  -0.03665  -0.00007  -0.07457
  60        2PZ         0.00018  -0.00011   0.00059   0.15784  -0.00001
  61 16  C  1S          0.00593   0.06193   0.00173   0.00006   0.04135
  62        2PX         0.07888   0.18518   0.02214  -0.00004  -0.12608
  63        2PY        -0.05223   0.02260   0.04465  -0.00001   0.02454
  64        2PZ         0.00023  -0.00018   0.00141   0.32370   0.00004
  65 17  O  1S          0.02940   0.06024   0.11383  -0.00033  -0.13523
  66        2PX        -0.05164  -0.17139   0.00743  -0.00041   0.08821
  67        2PY        -0.08193  -0.18215  -0.20876   0.00080   0.37435
  68        2PZ         0.00021  -0.00039   0.00212   0.46974  -0.00002
  69 18  O  1S          0.08873   0.01921  -0.21318   0.00092   0.02173
  70        2PX        -0.10401  -0.15301   0.39679  -0.00182  -0.00553
  71        2PY        -0.16204   0.02424   0.13298  -0.00046   0.04703
  72        2PZ         0.00015  -0.00019   0.00127   0.27981   0.00043
  73 19  H  1S          0.12702   0.08660   0.02337   0.00015  -0.03119
  74 20  H  1S         -0.12196   0.03999   0.12878  -0.00075  -0.02308
  75 21  H  1S          0.04942  -0.01954  -0.13874   0.00071   0.06831
  76 22  H  1S         -0.02637   0.03141  -0.01894  -0.00001   0.23242
  77 23  H  1S          0.13167   0.17743  -0.19211   0.00098  -0.08037
  78 24  H  1S          0.07673  -0.06553  -0.10291   0.00035  -0.29650
  79 25  H  1S         -0.00173   0.01532  -0.09134   0.00032   0.09164
  80 26  H  1S         -0.01196  -0.02465   0.14089  -0.00067  -0.03624
                          31        32        33        34        35
                           O         O         O         O         O
     Eigenvalues --    -0.50918  -0.49887  -0.48944  -0.48346  -0.48170
   1 1   C  1S         -0.00005   0.00002  -0.00141   0.00939  -0.00006
   2        2PX        -0.00019   0.00002   0.14788   0.01391  -0.00022
   3        2PY        -0.00006   0.00017   0.09569  -0.13213   0.00057
   4        2PZ         0.14150   0.05882   0.00020   0.00102   0.18819
   5 2   C  1S          0.00001   0.00000  -0.00612  -0.00810   0.00005
   6        2PX         0.00008  -0.00003  -0.06822  -0.06743   0.00026
   7        2PY         0.00006  -0.00009  -0.09734   0.15075  -0.00055
   8        2PZ        -0.02858   0.23141   0.00011   0.00047   0.10095
   9 3   C  1S          0.00001   0.00014  -0.04709  -0.00896   0.00006
  10        2PX        -0.00003   0.00004   0.02021  -0.11638   0.00060
  11        2PY        -0.00007  -0.00008   0.06252   0.02803  -0.00014
  12        2PZ         0.27685  -0.32483   0.00010  -0.00015  -0.03678
  13 4   C  1S          0.00004  -0.00001  -0.00439   0.00450  -0.00003
  14        2PX         0.00020  -0.00000  -0.13052  -0.04635   0.00036
  15        2PY         0.00007  -0.00025  -0.13099   0.17965  -0.00085
  16        2PZ         0.11585   0.11661   0.00024   0.00141   0.27562
  17 5   C  1S         -0.00018  -0.00001   0.07452   0.03189  -0.00020
  18        2PX         0.00003   0.00003   0.08109  -0.02294   0.00013
  19        2PY         0.00001   0.00000  -0.02697   0.02679  -0.00004
[...]
  76 22  H  1S          0.00000   0.00000   0.00000   0.00000   0.00000
  77 23  H  1S          0.00000   0.00000   0.00000   0.00000   0.00000
  78 24  H  1S          0.00000   0.00000   0.00000   0.00000   0.00000
  79 25  H  1S          0.00000   0.00000   0.00000   0.00000   0.00000
  80 26  H  1S          0.00000   0.00000   0.00000   0.00000   0.00000
                          76        77        78        79        80
  76 22  H  1S          0.95881
  77 23  H  1S          0.00000   0.95869
  78 24  H  1S          0.00000   0.00000   0.95893
  79 25  H  1S          0.00000   0.00000   0.00000   0.77864
  80 26  H  1S          0.00000   0.00000   0.00000   0.00000   0.74924
     Gross orbital populations:
                           1
   1 1   C  1S          1.06482
   2        2PX         0.96306
   3        2PY         0.95446
   4        2PZ         1.00650
   5 2   C  1S          1.06082
   6        2PX         0.94195
   7        2PY         0.97250
   8        2PZ         1.01658
   9 3   C  1S          1.08230
  10        2PX         0.98082
  11        2PY         0.92178
  12        2PZ         0.69426
  13 4   C  1S          1.09376
  14        2PX         0.98570
  15        2PY         0.96628
  16        2PZ         0.95389
  17 5   C  1S          1.08495
  18        2PX         0.98905
  19        2PY         0.92203
  20        2PZ         0.67758
  21 6   C  1S          1.09445
  22        2PX         0.98483
  23        2PY         0.96778
  24        2PZ         0.95031
  25 7   C  1S          1.05713
  26        2PX         0.93407
  27        2PY         0.94472
  28        2PZ         1.08779
  29 8   O  1S          1.81267
  30        2PX         1.91421
  31        2PY         1.28556
  32        2PZ         1.49655
  33 9   C  1S          1.06074
  34        2PX         0.94501
  35        2PY         0.96871
  36        2PZ         1.02834
  37 10  C  1S          1.05129
  38        2PX         0.97010
  39        2PY         0.86645
  40        2PZ         0.91653
  41 11  C  1S          1.09209
  42        2PX         0.98334
  43        2PY         0.96916
  44        2PZ         0.96309
  45 12  O  1S          1.81767
  46        2PX         1.95415
  47        2PY         1.29512
  48        2PZ         1.43791
  49 13  C  1S          1.09105
  50        2PX         0.97395
  51        2PY         0.97792
  52        2PZ         0.97376
  53 14  C  1S          1.09174
  54        2PX         0.96236
  55        2PY         0.99099
  56        2PZ         0.96850
  57 15  C  1S          1.08794
  58        2PX         0.97083
  59        2PY         0.95602
  60        2PZ         1.01769
  61 16  C  1S          1.04680
  62        2PX         0.85766
  63        2PY         0.96598
  64        2PZ         0.97800
  65 17  O  1S          1.69353
  66        2PX         1.19579
  67        2PY         1.50081
  68        2PZ         1.93164
  69 18  O  1S          1.70516
  70        2PX         1.52424
  71        2PY         1.22288
  72        2PZ         1.90108
  73 19  H  1S          0.94281
  74 20  H  1S          0.94260
  75 21  H  1S          0.94108
  76 22  H  1S          0.95881
  77 23  H  1S          0.95869
  78 24  H  1S          0.95893
  79 25  H  1S          0.77864
  80 26  H  1S          0.74924
          Condensed to atoms (all electrons):
               1          2          3          4          5          6
     1  C    3.988843   0.000000   0.000000   0.000000   0.000000   0.000000
     2  C    0.000000   3.991849   0.000000   0.000000   0.000000   0.000000
     3  C    0.000000   0.000000   3.679154   0.000000   0.000000   0.000000
     4  C    0.000000   0.000000   0.000000   3.999625   0.000000   0.000000
     5  C    0.000000   0.000000   0.000000   0.000000   3.673616   0.000000
     6  C    0.000000   0.000000   0.000000   0.000000   0.000000   3.997368
     7  C    0.000000   0.000000   0.000000   0.000000   0.000000   0.000000
     8  O    0.000000   0.000000   0.000000   0.000000   0.000000   0.000000
     9  C    0.000000   0.000000   0.000000   0.000000   0.000000   0.000000
    10  C    0.000000   0.000000   0.000000   0.000000   0.000000   0.000000
    11  C    0.000000   0.000000   0.000000   0.000000   0.000000   0.000000
    12  O    0.000000   0.000000   0.000000   0.000000   0.000000   0.000000
    13  C    0.000000   0.000000   0.000000   0.000000   0.000000   0.000000
    14  C    0.000000   0.000000   0.000000   0.000000   0.000000   0.000000
    15  C    0.000000   0.000000   0.000000   0.000000   0.000000   0.000000
    16  C    0.000000   0.000000   0.000000   0.000000   0.000000   0.000000
    17  O    0.000000   0.000000   0.000000   0.000000   0.000000   0.000000
    18  O    0.000000   0.000000   0.000000   0.000000   0.000000   0.000000
    19  H    0.000000   0.000000   0.000000   0.000000   0.000000   0.000000
    20  H    0.000000   0.000000   0.000000   0.000000   0.000000   0.000000
    21  H    0.000000   0.000000   0.000000   0.000000   0.000000   0.000000
    22  H    0.000000   0.000000   0.000000   0.000000   0.000000   0.000000
    23  H    0.000000   0.000000   0.000000   0.000000   0.000000   0.000000
    24  H    0.000000   0.000000   0.000000   0.000000   0.000000   0.000000
    25  H    0.000000   0.000000   0.000000   0.000000   0.000000   0.000000
    26  H    0.000000   0.000000   0.000000   0.000000   0.000000   0.000000
               7          8          9         10         11         12
     1  C    0.000000   0.000000   0.000000   0.000000   0.000000   0.000000
     2  C    0.000000   0.000000   0.000000   0.000000   0.000000   0.000000
     3  C    0.000000   0.000000   0.000000   0.000000   0.000000   0.000000
     4  C    0.000000   0.000000   0.000000   0.000000   0.000000   0.000000
     5  C    0.000000   0.000000   0.000000   0.000000   0.000000   0.000000
     6  C    0.000000   0.000000   0.000000   0.000000   0.000000   0.000000
     7  C    4.023712   0.000000   0.000000   0.000000   0.000000   0.000000
     8  O    0.000000   6.508982   0.000000   0.000000   0.000000   0.000000
     9  C    0.000000   0.000000   4.002803   0.000000   0.000000   0.000000
    10  C    0.000000   0.000000   0.000000   3.804386   0.000000   0.000000
    11  C    0.000000   0.000000   0.000000   0.000000   4.007683   0.000000
    12  O    0.000000   0.000000   0.000000   0.000000   0.000000   6.504864
    13  C    0.000000   0.000000   0.000000   0.000000   0.000000   0.000000
    14  C    0.000000   0.000000   0.000000   0.000000   0.000000   0.000000
    15  C    0.000000   0.000000   0.000000   0.000000   0.000000   0.000000
    16  C    0.000000   0.000000   0.000000   0.000000   0.000000   0.000000
    17  O    0.000000   0.000000   0.000000   0.000000   0.000000   0.000000
    18  O    0.000000   0.000000   0.000000   0.000000   0.000000   0.000000
    19  H    0.000000   0.000000   0.000000   0.000000   0.000000   0.000000
    20  H    0.000000   0.000000   0.000000   0.000000   0.000000   0.000000
    21  H    0.000000   0.000000   0.000000   0.000000   0.000000   0.000000
    22  H    0.000000   0.000000   0.000000   0.000000   0.000000   0.000000
    23  H    0.000000   0.000000   0.000000   0.000000   0.000000   0.000000
    24  H    0.000000   0.000000   0.000000   0.000000   0.000000   0.000000
    25  H    0.000000   0.000000   0.000000   0.000000   0.000000   0.000000
    26  H    0.000000   0.000000   0.000000   0.000000   0.000000   0.000000
              13         14         15         16         17         18
     1  C    0.000000   0.000000   0.000000   0.000000   0.000000   0.000000
     2  C    0.000000   0.000000   0.000000   0.000000   0.000000   0.000000
     3  C    0.000000   0.000000   0.000000   0.000000   0.000000   0.000000
     4  C    0.000000   0.000000   0.000000   0.000000   0.000000   0.000000
     5  C    0.000000   0.000000   0.000000   0.000000   0.000000   0.000000
     6  C    0.000000   0.000000   0.000000   0.000000   0.000000   0.000000
     7  C    0.000000   0.000000   0.000000   0.000000   0.000000   0.000000
     8  O    0.000000   0.000000   0.000000   0.000000   0.000000   0.000000
     9  C    0.000000   0.000000   0.000000   0.000000   0.000000   0.000000
    10  C    0.000000   0.000000   0.000000   0.000000   0.000000   0.000000
    11  C    0.000000   0.000000   0.000000   0.000000   0.000000   0.000000
    12  O    0.000000   0.000000   0.000000   0.000000   0.000000   0.000000
    13  C    4.016672   0.000000   0.000000   0.000000   0.000000   0.000000
    14  C    0.000000   4.013585   0.000000   0.000000   0.000000   0.000000
    15  C    0.000000   0.000000   4.032476   0.000000   0.000000   0.000000
    16  C    0.000000   0.000000   0.000000   3.848445   0.000000   0.000000
    17  O    0.000000   0.000000   0.000000   0.000000   6.321777   0.000000
    18  O    0.000000   0.000000   0.000000   0.000000   0.000000   6.353365
    19  H    0.000000   0.000000   0.000000   0.000000   0.000000   0.000000
    20  H    0.000000   0.000000   0.000000   0.000000   0.000000   0.000000
    21  H    0.000000   0.000000   0.000000   0.000000   0.000000   0.000000
    22  H    0.000000   0.000000   0.000000   0.000000   0.000000   0.000000
    23  H    0.000000   0.000000   0.000000   0.000000   0.000000   0.000000
    24  H    0.000000   0.000000   0.000000   0.000000   0.000000   0.000000
    25  H    0.000000   0.000000   0.000000   0.000000   0.000000   0.000000
    26  H    0.000000   0.000000   0.000000   0.000000   0.000000   0.000000
              19         20         21         22         23         24
     1  C    0.000000   0.000000   0.000000   0.000000   0.000000   0.000000
     2  C    0.000000   0.000000   0.000000   0.000000   0.000000   0.000000
     3  C    0.000000   0.000000   0.000000   0.000000   0.000000   0.000000
     4  C    0.000000   0.000000   0.000000   0.000000   0.000000   0.000000
     5  C    0.000000   0.000000   0.000000   0.000000   0.000000   0.000000
     6  C    0.000000   0.000000   0.000000   0.000000   0.000000   0.000000
     7  C    0.000000   0.000000   0.000000   0.000000   0.000000   0.000000
     8  O    0.000000   0.000000   0.000000   0.000000   0.000000   0.000000
     9  C    0.000000   0.000000   0.000000   0.000000   0.000000   0.000000
    10  C    0.000000   0.000000   0.000000   0.000000   0.000000   0.000000
    11  C    0.000000   0.000000   0.000000   0.000000   0.000000   0.000000
    12  O    0.000000   0.000000   0.000000   0.000000   0.000000   0.000000
    13  C    0.000000   0.000000   0.000000   0.000000   0.000000   0.000000
    14  C    0.000000   0.000000   0.000000   0.000000   0.000000   0.000000
    15  C    0.000000   0.000000   0.000000   0.000000   0.000000   0.000000
    16  C    0.000000   0.000000   0.000000   0.000000   0.000000   0.000000
    17  O    0.000000   0.000000   0.000000   0.000000   0.000000   0.000000
    18  O    0.000000   0.000000   0.000000   0.000000   0.000000   0.000000
    19  H    0.942810   0.000000   0.000000   0.000000   0.000000   0.000000
    20  H    0.000000   0.942602   0.000000   0.000000   0.000000   0.000000
    21  H    0.000000   0.000000   0.941082   0.000000   0.000000   0.000000
    22  H    0.000000   0.000000   0.000000   0.958807   0.000000   0.000000
    23  H    0.000000   0.000000   0.000000   0.000000   0.958686   0.000000
    24  H    0.000000   0.000000   0.000000   0.000000   0.000000   0.958925
    25  H    0.000000   0.000000   0.000000   0.000000   0.000000   0.000000
    26  H    0.000000   0.000000   0.000000   0.000000   0.000000   0.000000
              25         26
     1  C    0.000000   0.000000
     2  C    0.000000   0.000000
     3  C    0.000000   0.000000
     4  C    0.000000   0.000000
     5  C    0.000000   0.000000
     6  C    0.000000   0.000000
     7  C    0.000000   0.000000
     8  O    0.000000   0.000000
     9  C    0.000000   0.000000
    10  C    0.000000   0.000000
    11  C    0.000000   0.000000
    12  O    0.000000   0.000000
    13  C    0.000000   0.000000
    14  C    0.000000   0.000000
    15  C    0.000000   0.000000
    16  C    0.000000   0.000000
    17  O    0.000000   0.000000
    18  O    0.000000   0.000000
    19  H    0.000000   0.000000
    20  H    0.000000   0.000000
    21  H    0.000000   0.000000
    22  H    0.000000   0.000000
    23  H    0.000000   0.000000
    24  H    0.000000   0.000000
    25  H    0.778640   0.000000
    26  H    0.000000   0.749242
 Mulliken charges:
               1
     1  C    0.011157
     2  C    0.008151
     3  C    0.320846
     4  C    0.000375
     5  C    0.326384
     6  C    0.002632
     7  C   -0.023712
     8  O   -0.508982
     9  C   -0.002803
    10  C    0.195614
    11  C   -0.007683
    12  O   -0.504864
    13  C   -0.016672
    14  C   -0.013585
    15  C   -0.032476
    16  C    0.151555
    17  O   -0.321777
    18  O   -0.353365
    19  H    0.057190
    20  H    0.057398
    21  H    0.058918
    22  H    0.041193
    23  H    0.041314
    24  H    0.041075
    25  H    0.221360
    26  H    0.250758
 Sum of Mulliken charges =  -0.00000
 Mulliken charges with hydrogens summed into heavy atoms:
               1
     1  C    0.011157
     2  C    0.008151
     3  C    0.320846
     4  C    0.057565
     5  C    0.326384
     6  C    0.060031
     7  C   -0.023712
     8  O   -0.508982
     9  C   -0.002803
    10  C    0.195614
    11  C    0.051235
    12  O   -0.504864
    13  C    0.024522
    14  C    0.027728
    15  C    0.008599
    16  C    0.151555
    17  O   -0.100417
    18  O   -0.102607
 Charge=              0.0000 electrons
 Dipole moment (field-independent basis, Debye):
    X=              1.5735    Y=              2.1188    Z=              0.0006  Tot=              2.6392
 N-N= 4.704554999952D+02 E-N= 0.000000000000D+00  KE=-1.135468773640D+03
 Orbital energies and kinetic energies (alpha):
                                 1                 2
   1         O                -1.769310        -14.284112
   2         O                -1.680308        -13.751219
   3         O                -1.645686        -13.799875
   4         O                -1.590495        -13.476142
   5         O                -1.522702        -13.963574
   6         O                -1.501034        -13.788414
   7         O                -1.349470        -13.736919
   8         O                -1.237443        -12.945537
   9         O                -1.184599        -13.049000
  10         O                -1.145414        -13.478947
  11         O                -1.041230        -13.038144
  12         O                -1.002588        -12.865404
  13         O                -0.992015        -13.126661
  14         O                -0.919969        -12.522161
  15         O                -0.887785        -13.011304
  16         O                -0.840514        -12.694378
  17         O                -0.775961        -12.879233
  18         O                -0.730528        -12.885925
  19         O                -0.723026        -12.677295
  20         O                -0.687986        -12.668356
  21         O                -0.663055        -12.598505
  22         O                -0.630769        -12.560441
  23         O                -0.604302        -12.270597
  24         O                -0.601183        -13.239033
  25         O                -0.589709        -12.214595
  26         O                -0.582816        -13.001673
  27         O                -0.570107        -12.853763
  28         O                -0.558993        -12.550613
  29         O                -0.555847        -12.737878
  30         O                -0.523051        -12.188153
  31         O                -0.509179        -12.879682
  32         O                -0.498865        -12.734359
  33         O                -0.489441        -12.691260
  34         O                -0.483462        -12.098663
  35         O                -0.481700        -12.753706
  36         O                -0.474997        -12.260400
  37         O                -0.467950        -12.543268
  38         O                -0.439656        -12.638890
  39         O                -0.374211        -12.819128
  40         O                -0.361111        -13.109750
  41         O                -0.356578        -12.568774
  42         O                -0.353214        -12.178512
  43         O                -0.344359        -12.756398
  44         O                -0.318612        -12.843748
  45         V                -0.065867        -12.848328
  46         V                -0.016375        -12.450589
  47         V                 0.000625        -12.502717
  48         V                 0.009312        -12.354233
  49         V                 0.046008        -12.777331
  50         V                 0.049280        -12.403376
  51         V                 0.056916        -12.854970
  52         V                 0.083788        -12.309199
  53         V                 0.088307        -12.301646
  54         V                 0.093931        -12.712973
  55         V                 0.102924        -11.946417
  56         V                 0.106744        -12.694905
  57         V                 0.113294        -11.731178
  58         V                 0.126868        -12.115999
  59         V                 0.132418        -11.874092
  60         V                 0.181970        -11.587725
  61         V                 0.184875        -10.364765
  62         V                 0.193606        -11.298676
  63         V                 0.207685        -11.759966
  64         V                 0.228146        -12.258101
  65         V                 0.242260        -11.583499
  66         V                 0.254880        -12.037463
  67         V                 0.268864        -12.041057
  68         V                 0.296909        -10.716115
  69         V                 0.309564        -11.760754
  70         V                 0.319329        -11.593709
  71         V                 0.362710        -11.705551
  72         V                 0.375659        -11.862292
  73         V                 0.406161        -12.613714
  74         V                 0.415180        -12.043885
  75         V                 0.425027        -12.222937
  76         V                 0.439782        -11.658633
  77         V                 0.448971        -12.181904
  78         V                 0.456854        -12.313539
  79         V                 0.486626        -12.273591
  80         V                 0.498388        -12.546274
 Total kinetic energy from orbitals=-1.135468773640D+03
 1\1\GINC-GTX1050TI\SP\RZINDO\STO-3G\C14H8O4\MVEROT\16-Sep-2022\0\\#n Z
 INDO(NSTATE=10) pop=full gfinput\\alizarine\\0,1\C,0,-2.4236,0.5542,-0
 .1353\C,0,-2.0909,-0.8094,-0.016\C,0,-1.3669,1.6093,-0.1594\C,0,-3.766
 4,0.9329,-0.2336\C,0,-0.6751,-1.2428,0.0904\C,0,-3.1053,-1.775,0.0037\
 C,0,0.3733,-0.2155,0.0677\O,0,-0.3997,-2.4531,0.1961\C,0,0.044,1.1632,
 -0.0527\C,0,1.7244,-0.6117,0.1674\C,0,1.0545,2.1152,-0.072\O,0,-1.6641
 ,2.7964,-0.2644\C,0,-4.4389,-1.3879,-0.0946\C,0,-4.7696,-0.033,-0.2134
 \C,0,2.3939,1.7242,0.0267\C,0,2.7402,0.3836,0.1454\O,0,4.0177,-0.0625,
 0.2456\O,0,2.1148,-1.8843,0.2834\H,0,-3.996,1.9892,-0.3251\H,0,-2.8254
 ,-2.8189,0.0969\H,0,0.7834,3.1609,-0.1651\H,0,-5.2229,-2.1398,-0.079\H
 ,0,-5.8111,0.2667,-0.2903\H,0,3.1816,2.4754,0.011\H,0,4.6199,0.6982,0.
 2205\H,0,1.2824,-2.4295,0.281\\Version=AM64L-G09RevD.01\State=1-A\HF=-
 132.3401132\RMSD=7.092e-09\PG=C01 [X(C14H8O4)]\\@


 GOORD'S AXIOM:  A MEETING IS AN EVENT AT WHICH
 THE MINUTES ARE KEPT AND THE HOURS ARE LOST.
 Job cpu time:       0 days  0 hours  0 minutes  1.6 seconds.
 File lengths (MBytes):  RWF=    127 Int=      0 D2E=      0 Chk=      5 Scr=      2
 Normal termination of Gaussian 09 at Fri Sep 16 09:46:25 2022.
