     192
 i =        0, time =        0.000, E =     -1102.6294485943
  O         3.8585873763       -4.7533175213        5.5091974759
  H         4.2109950951       -5.5568705259        5.9994585948
  H         3.0947084560       -4.3172663108        5.9135950646
  O        -3.5460761891        1.7456237131        4.2880212708
  H        -3.3572582677        0.8369944362        4.1529456220
  H        -3.6089143450        1.9436976972        5.2698392012
  O         4.5691359319        2.9343274990       -7.0999718127
  H         3.6785962350        3.2291072409       -6.8049831901
  H         4.4953665356        2.7845914189       -8.0458027314
  O        -2.5731801314       -0.1063102257       -3.4147140374
  H        -2.0386687011        0.4155234251       -2.8289645480
  H        -1.8891606976       -0.6148201666       -3.9280631618
  O        -3.7625034284       -7.7105940327        5.6279977389
  H        -4.6343536576       -7.4199803039        5.9874790347
  H        -3.8520633915       -7.6348492192        4.6607806353
  O        -6.7131259426       -0.0759204976        2.3176844292
  H        -6.0415850051       -0.4560400697        3.0079983076
  H        -6.2582643134        0.7343068494        1.9582947358
  O         4.0109535867       -5.5817692668       -0.4126912859
  H         3.3321311866       -5.6166906662        0.3076935926
  H         3.9051538355       -4.7533442556       -0.8369521875
  O        -2.6692626967       -3.0810510613       -1.2259349448
  H        -3.2486322997       -2.4491708867       -1.7386930105
  H        -2.1918958173       -2.5988518360       -0.5763067756
  O         5.4576244064       -3.1688044689        3.1002596795
  H         4.6854987571       -3.2457995297        3.6224179934
  H         5.2579372917       -3.0507495002        2.1311396222
  O         2.0078792352        3.8025888294       -6.6441198936
  H         1.3809036112        3.0702729257       -6.8038689306
  H         1.8366067800        4.0666291804       -5.7099975874
  O         4.0608830110       -3.8929207302       -3.0596772434
  H         3.2332712864       -3.7206669725       -3.6953758544
  H         4.3366899606       -2.9825098616       -2.9848217710
  O         1.9773593054       -1.8442291306        1.0225667179
  H         1.5650644885       -2.4713604568        1.6495937537
  H         1.6194813185       -1.9133123969        0.0656946095
  O         0.7338447631       -5.7432877136       -5.0100685957
  H         1.4795768454       -6.3299226862       -4.8189325814
  H         0.4491149358       -5.7095685669       -5.9473559749
  O        -7.5166459589       -8.6781062088       -3.2371569882
  H        -7.8737663294       -9.6027219294       -3.0814153209
  H        -7.1323941392       -8.5788960418       -2.3467663280
  O         3.0089956358       -1.6206934676        5.1704516391
  H         3.8547864750       -1.8022862145        5.6866350548
  H         3.1700832113       -0.8185381416        4.6102432456
  O        -0.0943492744        1.8634710749       -6.6861347029
  H         0.2389831969        1.0552334471       -6.3170377387
  H        -0.0534604238        1.7370469556       -7.6527831571
  O         1.3803001006       -3.0815472275        3.6598466091
  H         2.0052752091       -2.6793618758        4.3169228939
  H         1.0973942250       -3.9666380514        3.9813401483
  O        -2.3279129364        2.8060791527        2.2347417439
  H        -1.6230445751        2.1315230876        2.1866163236
  H        -2.7609234795        2.5819568350        3.0889511952
  O         0.8745131234       -0.6611187482       -5.6004046460
  H         1.7204015713       -0.8189656405       -6.1098612966
  H         1.1964117837       -0.2405057963       -4.7549061774
  O        -1.1866462102       -0.7164030048        0.2437849238
  H        -1.1340006348        0.2325710411       -0.0726156939
  H        -0.9335438317       -0.7854778370        1.2011335414
  O        -3.8861935106       -9.0129285534       -3.1318571683
  H        -4.4983492231       -8.2801255892       -3.2160220896
  H        -2.9183857578       -8.7301395642       -3.1224505015
  O         4.9784414381        4.5574106629        2.1605978288
  H         4.5742506248        4.0690251974        1.4375040342
  H         4.2106782789        4.9079438424        2.6736093641
  O         4.2074812608        1.0294752439       -3.2134938111
  H         4.6250866171        0.8524308220       -4.0648666086
  H         4.4221519308        0.1920392568       -2.7364360799
  O        -5.2106345443       -6.3463699492       -2.6806456410
  H        -5.3801630197       -6.0861826108       -1.7737611737
  H        -5.9985546753       -6.0894306119       -3.1521879087
  O         4.8272006144       -2.1493089974        0.6957555837
  H         5.1698114049       -1.3843105780        1.1680731517
  H         3.8731403616       -2.0152767607        0.7901517878
  O         2.1084974235        0.9406557281        1.6964699575
  H         2.7635704789        1.5106519967        1.2582480434
  H         2.3138417141        0.0791504768        1.2943222699
  O        -5.7579045611       -5.0935991816       -0.3613728277
  H        -6.6922016300       -5.4438912590       -0.2434456391
  H        -5.9339541154       -4.1852263482       -0.6893230982
  O        -4.8501183696        4.6347512586        2.6323657871
  H        -5.8186923573        4.7291496971        2.3648078237
  H        -4.7686962808        3.6685062675        2.2489112658
  O         5.5123889390        0.8523825517       -5.5927914459
  H         6.4009274201        1.1961666201       -5.3454982775
  H         5.0326268549        1.4571097750       -6.2820870000
  O         0.7365184732       -1.9176950430       -1.2724577473
  H         0.4366627686       -2.6685959517       -1.8452499204
  H        -0.0280723827       -1.6346960324       -0.7323636982
  O         3.9005939808        2.6221972296        0.0824981180
  H         4.6603628952        2.4136405159       -0.4885023274
  H         3.3619307241        3.2465911837       -0.4599512808
  O        -1.0991624885       -1.3693412589        2.9498880034
  H        -0.3354058556       -2.0369012425        3.1075024163
  H        -1.8473458549       -1.9916364646        3.2032143743
  O         2.0718451094       -5.6501678174        1.3629079156
  H         1.2043618452       -6.1369822674        1.2560686630
  H         2.4507495844       -5.8859092245        2.2558212721
  O        -0.6280310316       -3.8273493362       -2.8460859716
  H        -1.5583639221       -3.7769636412       -2.5811140145
  H        -0.5112292363       -4.5879523025       -3.3982225959
  O        -5.2918433010        2.0621670074        1.4353011132
  H        -4.4549447831        1.8776050679        1.9014549175
  H        -5.1335936869        1.9198214761        0.4197228743
  O         1.9599719653       -3.4245632717       -5.2673604360
  H         1.3225562775       -4.2123092010       -5.0388832852
  H         1.2999292168       -2.7711468268       -5.4986783863
  O        -1.1933205846        3.9368513830       -3.3737465077
  H        -1.2003012694        3.9803649971       -4.3582935942
  H        -0.7402505311        4.6500956055       -2.9405594580
  O        -5.4243979802       -5.0029807582        4.2784625506
  H        -6.1164034705       -4.5127003053        3.7817315683
  H        -4.7403199519       -5.3498607764        3.6920944114
  O         2.9732984993        5.7937546317        3.6041830736
  H         3.4176710045        6.4726708296        4.1695014822
  H         2.4485201643        5.2041088060        4.2250869218
  O        -4.0511295134        1.5445925671       -5.0626498585
  H        -3.5387103609        0.7974835831       -4.6210546124
  H        -4.0333821170        2.3518494025       -4.4301366268
  O         3.4847726839        0.5997692637        4.0091486817
  H         2.7896502362        0.5375110591        3.2686671028
  H         4.3189983631        0.4153324309        3.4395276451
  O        -4.6207476869       -1.0117618538        4.0048952776
  H        -5.3477593066       -1.2443059233        4.6253237945
  H        -4.2163881176       -1.8844792105        3.8428058821
  O        -0.2165387154        1.2751467697        3.1167167744
  H         0.6371782887        1.4136801810        2.7286969429
  H        -0.3894124526        0.3225841245        3.0508790291
  O        -1.9915351632        5.0697083632        0.6000194332
  H        -2.3376502958        4.2340876605        1.0013898546
  H        -2.6520248188        5.7471163392        0.8506616742
  O        -1.3075474036       -1.8956122645       -4.9542920356
  H        -0.8701251561       -2.4028189929       -4.2563741889
  H        -0.5949693850       -1.3532124979       -5.4532434800
  O        -5.1373452268        1.8062068789       -1.2867681226
  H        -4.6981592560        2.4597481938       -1.8505668997
  H        -5.4245526684        1.1256927260       -1.8633945543
  O        -7.3836561358       -1.2119873462       -1.9506599575
  H        -6.4212881329       -1.0371432188       -2.1463799566
  H        -7.4808782211       -1.5310477918       -1.0339482458
  O        -0.4639445925        1.4048471789       -1.7228637494
  H        -0.7867348868        2.1866499220       -2.1962304023
  H         0.2743927320        0.9864157199       -2.2215845685
  O        -0.0298107043       -6.5210921839       -1.0933643185
  H         0.0021424143       -5.5311453888       -1.1226646288
  H        -0.8031132631       -6.7435142146       -0.4648562320
  O         5.7090935537       -1.6927086580        6.0185486672
  H         6.0227718591       -2.5102376528        6.4195407580
  H         5.6793497711       -0.9012395738        6.6521961143
  O        -2.5962982991       -5.7683972037       -4.2195771395
  H        -2.6049028140       -6.7077669400       -4.4728336739
  H        -3.4354537463       -5.5645841736       -3.8483514813
  O        -4.9449687319       -1.4086720170       -3.2473392351
  H        -4.8913021653       -2.2217322989       -3.7674224672
  H        -3.9689548003       -1.0964857745       -3.2341980948
  O         2.2983754229       -8.0809494482       -1.2132412662
  H         1.3003681505       -8.0636283692       -1.1143923954
  H         2.5161940132       -7.1053673603       -1.1768519202
  O         6.7754357543       -3.8965331032       -5.3359261145
  H         7.5499418595       -4.1003001805       -5.8213622687
  H         6.0430158524       -4.4328146397       -5.6479610986
  O        -0.3424844631        4.9658112476        2.9508285728
  H        -0.6418240309        4.1672557959        3.4716379980
  H        -0.6759740908        4.8699377537        2.0551376194
  O        -2.8056288807       -4.0048234272        6.2239057927
  H        -2.3850599469       -4.6322887909        6.8455564859
  H        -2.3797353004       -3.1498233269        6.4330163166
  O        -2.7925113864       -3.4732237158        3.4612331596
  H        -3.1129543056       -3.8620641144        4.2746132111
  H        -3.2856093678       -4.0271447136        2.8274407488
  O         2.4867711476        4.6803618907       -3.9511208166
  H         3.3971373036        4.5081635205       -3.6298163906
  H         1.9790712168        4.6240682409       -3.1152437525
  O         1.6590765104        0.0523137912       -3.1069189687
  H         1.5113564742       -0.5996769003       -2.3563690233
  H         2.5068721250        0.5264194699       -3.0661523880
  O        -1.2023048654       -8.1603479212       -6.3670700282
  H        -0.9055157967       -9.0690551157       -6.5705273597
  H        -2.1798096138       -8.0740016376       -6.5464905196
  O        -0.4761071273        8.3851620636        0.5987466087
  H         0.3632441731        8.3096547993        1.1058350782
  H        -1.2852386123        8.0753854402        1.0587255936
  O         5.9065449362       -6.7989771803       -6.6004398209
  H         5.4130154976       -7.6233171741       -6.9137876216
  H         6.2177506878       -6.2344541440       -7.3198720135
  O        -0.3594330297       -5.2622440761        4.6704297767
  H        -0.4156127476       -6.0988819305        4.1367481919
  H        -1.2931127588       -5.1547968831        4.9497584977
  O        -3.8273131578       -5.5279235466        1.7633664403
  H        -4.1388543582       -6.3621998573        2.1513804320
  H        -4.3955669691       -5.3216936959        1.0405948547
     192
 i =        1, time =        0.500, E =     -1102.6347284872
  O         3.8620778860       -4.7564789820        5.5098797217
  H         4.2150182708       -5.5548613166        5.9965294123
  H         3.0921621005       -4.3224801658        5.9067663943
  O        -3.5425623284        1.7429277455        4.2901747198
  H        -3.3415222496        0.8258629565        4.1545571170
  H        -3.6021082598        1.9356708618        5.2825068046
  O         4.5684620988        2.9324620992       -7.0979878538
  H         3.6681234394        3.2178174439       -6.8130178177
  H         4.4884932687        2.7946670236       -8.0521849497
  O        -2.5735053099       -0.1019351215       -3.4156037368
  H        -2.0453514443        0.4261834079       -2.8318526458
  H        -1.8803206205       -0.6211768632       -3.9222484111
  O        -3.7621549076       -7.7105456782        5.6261708563
  H        -4.6425359560       -7.4220015248        5.9941829997
  H        -3.8514394765       -7.6244693049        4.6614425314
  O        -6.7092812111       -0.0752213726        2.3191414175
  H        -6.0392615380       -0.4625002624        3.0178734013
  H        -6.2611400962        0.7368773427        1.9595060622
  O         4.0138347968       -5.5817731845       -0.4125241739
  H         3.3294005419       -5.6070608816        0.3128638761
  H         3.9120577767       -4.7474661642       -0.8218713207
  O        -2.6721121941       -3.0803195714       -1.2266288155
  H        -3.2337723653       -2.4492802428       -1.7441265861
  H        -2.2111055400       -2.5970639788       -0.5750220491
  O         5.4554031238       -3.1687469320        3.0997824042
  H         4.6943326674       -3.2356634438        3.6358364697
  H         5.2638612565       -3.0648682111        2.1392738023
  O         2.0078197555        3.8027482972       -6.6435867420
  H         1.3657186327        3.0697584534       -6.8005976660
  H         1.8275729464        4.0668477765       -5.7123207043
  O         4.0605169442       -3.8906763845       -3.0581717069
  H         3.2262826895       -3.7180540912       -3.6828520995
  H         4.3518582865       -2.9680917703       -2.9756431836
  O         1.9772406538       -1.8457589399        1.0204927151
  H         1.5811222150       -2.4649624698        1.6442791845
  H         1.6081647052       -1.9207706632        0.0642714432
  O         0.7302342140       -5.7416718067       -5.0106524136
  H         1.4787223898       -6.3202285650       -4.8148471534
  H         0.4505667735       -5.7146496869       -5.9489208407
  O        -7.5203448821       -8.6780033935       -3.2363462235
  H        -7.8690721750       -9.6017969354       -3.0942052118
  H        -7.1371254454       -8.5837561341       -2.3500389242
  O         3.0075085054       -1.6211890882        5.1701489347
  H         3.8541116610       -1.8089468075        5.6859295322
  H         3.1602289164       -0.8292415089        4.6090307597
  O        -0.0947788251        1.8624124502       -6.6867941592
  H         0.2469568430        1.0549489044       -6.3258576761
  H        -0.0517254292        1.7491724931       -7.6536191215
  O         1.3776894374       -3.0812079610        3.6602523846
  H         2.0162390642       -2.6794747208        4.3183580986
  H         1.1015981553       -3.9644345736        3.9794456564
  O        -2.3259413601        2.8032484966        2.2379811857
  H        -1.6169131023        2.1484850104        2.2000123921
  H        -2.7630708017        2.5810556501        3.0967712553
  O         0.8709784904       -0.6621381846       -5.6026036633
  H         1.7112685587       -0.8251119021       -6.1161678012
  H         1.2080800927       -0.2359790512       -4.7569467082
  O        -1.1843682428       -0.7180311248        0.2469426181
  H        -1.1311411545        0.2314188657       -0.0608794186
  H        -0.9305401304       -0.7926819990        1.1975687007
  O        -3.8863911691       -9.0117422588       -3.1294028229
  H        -4.4941928735       -8.2872418600       -3.2110012945
  H        -2.9154821527       -8.7319671794       -3.1214430993
  O         4.9796802044        4.5560008412        2.1629534264
  H         4.5681453424        4.0744667840        1.4253812617
  H         4.2103276887        4.9030261165        2.6859600780
  O         4.2050322808        1.0310438087       -3.2097622542
  H         4.6412620507        0.8575345945       -4.0542236624
  H         4.4296810591        0.1917425606       -2.7344170852
  O        -5.2082814040       -6.3467060536       -2.6852134452
  H        -5.3724973962       -6.0694302805       -1.7555612755
  H        -6.0028147770       -6.0955205865       -3.1573734570
  O         4.8283072563       -2.1529475686        0.6972428673
  H         5.1672972225       -1.3768458679        1.1631851375
  H         3.8630124558       -2.0203301625        0.7898098012
  O         2.1066056477        0.9371668739        1.6950415627
  H         2.7562092890        1.4979940916        1.2761258775
  H         2.3103959365        0.0756735730        1.2828793567
  O        -5.7573097008       -5.0942086337       -0.3630981425
  H        -6.6935706227       -5.4266016183       -0.2505326756
  H        -5.9386131674       -4.1779401468       -0.6758689862
  O        -4.8535019609        4.6338206559        2.6309297514
  H        -5.8194693530        4.7195258308        2.3666186367
  H        -4.7745700782        3.6802657786        2.2534168685
  O         5.5097939115        0.8512979801       -5.5943158599
  H         6.4013476829        1.2058588770       -5.3388639906
  H         5.0340758410        1.4695808328       -6.2852080233
  O         0.7387483832       -1.9196399709       -1.2700038735
  H         0.4489924902       -2.6598438942       -1.8530120513
  H        -0.0327787869       -1.6313253196       -0.7345731232
  O         3.8988940582        2.6226491475        0.0816450470
  H         4.6617929050        2.4151735304       -0.4836101366
  H         3.3592792231        3.2461150675       -0.4777608629
  O        -1.1000881057       -1.3672246983        2.9480150520
  H        -0.3419105860       -2.0345082667        3.1190669119
  H        -1.8442140116       -1.9901247773        3.2049414904
  O         2.0739242363       -5.6494110989        1.3592543875
  H         1.2072315118       -6.1320932917        1.2451021449
  H         2.4503979001       -5.8859539833        2.2549743636
  O        -0.6282789985       -3.8288098524       -2.8456429814
  H        -1.5646314811       -3.7827202316       -2.5854279988
  H        -0.5034748436       -4.5942610989       -3.4082705292
  O        -5.2911553742        2.0604574824        1.4346856362
  H        -4.4532714616        1.8746969872        1.8967188691
  H        -5.1116053381        1.9323329642        0.4236158753
  O         1.9565575226       -3.4231706260       -5.2643561514
  H         1.3303723191       -4.2301698333       -5.0333466734
  H         1.2902954009       -2.7634981505       -5.4980243769
  O        -1.1935204529        3.9366531342       -3.3719039699
  H        -1.1937826826        3.9767573293       -4.3498203473
  H        -0.7321325736        4.6417507850       -2.9452838100
  O        -5.4218620809       -5.0002296607        4.2808231804
  H        -6.1379371731       -4.5169291220        3.7787106539
  H        -4.7407979760       -5.3472444496        3.6971839816
  O         2.9689083029        5.7963448209        3.6002599501
  H         3.4283196789        6.4698369335        4.1622567135
  H         2.4511771080        5.1953578011        4.2166806948
  O        -4.0498981829        1.5460657068       -5.0609894142
  H        -3.5395335844        0.8011797544       -4.6343368051
  H        -4.0166709299        2.3473529393       -4.4278833041
  O         3.4856472781        0.5986762275        4.0110749535
  H         2.7861130202        0.5270340623        3.2722373354
  H         4.3188676848        0.4090015814        3.4380262905
  O        -4.6180279370       -1.0086315533        4.0041829528
  H        -5.3573272831       -1.2430754130        4.6180188105
  H        -4.2081539364       -1.8905929491        3.8498943566
  O        -0.2176288882        1.2728312221        3.1138982892
  H         0.6437615128        1.4124213482        2.7320471826
  H        -0.3842541498        0.3106723664        3.0446931897
  O        -1.9918402620        5.0676270326        0.6009711358
  H        -2.3456673492        4.2427186537        1.0073998291
  H        -2.6560194057        5.7455986989        0.8485672091
  O        -1.3031888950       -1.8924755373       -4.9558212637
  H        -0.8706191375       -2.3966493369       -4.2514021225
  H        -0.5962523220       -1.3527037084       -5.4534793028
  O        -5.1391048547        1.8053567819       -1.2842938664
  H        -4.7026374306        2.4635443706       -1.8547378293
  H        -5.4246491990        1.1373452967       -1.8625050171
  O        -7.3838951440       -1.2117018993       -1.9492888124
  H        -6.4047803589       -1.0364111717       -2.1373766509
  H        -7.4757926752       -1.5317927829       -1.0115922160
  O        -0.4647572727        1.4055540528       -1.7237024921
  H        -0.7722024851        2.1934670488       -2.1971810446
  H         0.2820151591        0.9823375697       -2.2305553685
  O        -0.0331734103       -6.5222965808       -1.0947598807
  H        -0.0076597938       -5.5302480677       -1.1245124458
  H        -0.7985043904       -6.7423232970       -0.4624331886
  O         5.7056820885       -1.6934457502        6.0165769354
  H         6.0303809556       -2.5140631559        6.4293684754
  H         5.6809305191       -0.9057208499        6.6484223315
  O        -2.5945829842       -5.7657228336       -4.2235487907
  H        -2.5963676395       -6.7051106603       -4.4670972760
  H        -3.4401965874       -5.5716330316       -3.8489551891
  O        -4.9461240276       -1.4106909954       -3.2485887578
  H        -4.8997551213       -2.2342748988       -3.7570832056
  H        -3.9709915211       -1.1123785565       -3.2240841546
  O         2.2980560891       -8.0777924434       -1.2148153518
  H         1.2986345476       -8.0728578251       -1.1131454699
  H         2.5134564518       -7.1255531597       -1.1762130071
  O         6.7767508785       -3.8983682086       -5.3341627334
  H         7.5696854795       -4.0980028102       -5.8139233971
  H         6.0374732419       -4.4287274751       -5.6384627676
  O        -0.3421404734        4.9673974957        2.9496929730
  H        -0.6534795430        4.1773890534        3.4762941995
  H        -0.6881297734        4.8700807517        2.0459505239
  O        -2.8091863396       -4.0065402820        6.2215936555
  H        -2.3761692902       -4.6330450277        6.8450667999
  H        -2.3788691986       -3.1484029497        6.4367860507
  O        -2.7936422005       -3.4725984612        3.4589640517
  H        -3.1192999162       -3.8650062346        4.2760107502
  H        -3.2823342327       -4.0331829960        2.8177350396
  O         2.4841466775        4.6800431690       -3.9479889726
  H         3.3951695625        4.5277255435       -3.6284570266
  H         1.9789311693        4.6221762278       -3.1085088188
  O         1.6619210690        0.0552922510       -3.1078348759
  H         1.5060270374       -0.6133057999       -2.3591222780
  H         2.5264691504        0.5276308930       -3.0583376022
  O        -1.2021628120       -8.1585376868       -6.3669415950
  H        -0.9103497953       -9.0583900820       -6.5793983028
  H        -2.1850236626       -8.0735830592       -6.5422760980
  O        -0.4768142521        8.3870694413        0.5979071072
  H         0.3717769181        8.3057643606        1.1056049360
  H        -1.2789329189        8.0816648315        1.0561430374
  O         5.9031014191       -6.8004480543       -6.6014863794
  H         5.4208434462       -7.6180561797       -6.9159597937
  H         6.2090252463       -6.2222123840       -7.3185777294
  O        -0.3524485770       -5.2640576412        4.6711065927
  H        -0.4017535809       -6.1040382945        4.1467613094
  H        -1.2827861681       -5.1473254348        4.9537862287
  O        -3.8278097236       -5.5271536973        1.7662751320
  H        -4.1254303294       -6.3528077059        2.1429652648
  H        -4.3972318775       -5.3108514691        1.0362715096
     192
 i =        2, time =        1.000, E =     -1102.6436883407
  O         3.8667040160       -4.7602170698        5.5102098884
  H         4.2190803171       -5.5564721084        6.0012538533
  H         3.0848747218       -4.3204688263        5.8988051886
  O        -3.5397745911        1.7409947481        4.2927775623
  H        -3.3269597516        0.8121662119        4.1529457612
  H        -3.6035804204        1.9269320830        5.2889919893
  O         4.5694792953        2.9322097637       -7.0954605304
  H         3.6581580747        3.2087081270       -6.8179349734
  H         4.4796363440        2.8047554319       -8.0581938595
  O        -2.5727808011       -0.0979132016       -3.4149226641
  H        -2.0524241354        0.4378765341       -2.8326547174
  H        -1.8747038399       -0.6267680073       -3.9192497859
  O        -3.7627552111       -7.7103510887        5.6246844709
  H        -4.6496206879       -7.4246204701        5.9999769877
  H        -3.8529884042       -7.6110816865        4.6560384767
  O        -6.7051291017       -0.0752186798        2.3199193829
  H        -6.0385554069       -0.4722686678        3.0273890464
  H        -6.2620852496        0.7353063850        1.9588816799
  O         4.0160213712       -5.5827338169       -0.4129330421
  H         3.3244036985       -5.5955626860        0.3201271073
  H         3.9225863923       -4.7368839164       -0.8147055238
  O        -2.6754542710       -3.0798470422       -1.2273401580
  H        -3.2169040919       -2.4503431692       -1.7461123066
  H        -2.2277168472       -2.5922413825       -0.5683016945
  O         5.4532737581       -3.1688495172        3.0994750864
  H         4.6944680133       -3.2316215745        3.6529958049
  H         5.2621339406       -3.0776699155        2.1393829897
  O         2.0079036034        3.8027375740       -6.6435786226
  H         1.3570905335        3.0727343923       -6.8002832727
  H         1.8179547490        4.0682404312       -5.7119589652
  O         4.0609659628       -3.8890590476       -3.0570509715
  H         3.2243878208       -3.7206728089       -3.6655031498
  H         4.3696537412       -2.9496413561       -2.9636444160
  O         1.9780397684       -1.8463763347        1.0182923782
  H         1.6014480119       -2.4625776013        1.6424294738
  H         1.6003306083       -1.9306277542        0.0701640371
  O         0.7269764098       -5.7405653967       -5.0095873654
  H         1.4806667605       -6.3140666094       -4.8153166232
  H         0.4544421519       -5.7192783995       -5.9508423882
  O        -7.5237985533       -8.6781791490       -3.2358433267
  H        -7.8702945704       -9.6002565384       -3.1051846258
  H        -7.1412390208       -8.5908261340       -2.3489140544
  O         3.0064405902       -1.6227380541        5.1692803116
  H         3.8587605115       -1.8182334135        5.6851282246
  H         3.1587068148       -0.8327184620        4.6039967148
  O        -0.0945867676        1.8632865578       -6.6875077177
  H         0.2563408297        1.0431379098       -6.3344375708
  H        -0.0582876108        1.7594918847       -7.6517975408
  O         1.3760380808       -3.0800549975        3.6614446833
  H         2.0290725119       -2.6822068824        4.3206762881
  H         1.1046159309       -3.9639578131        3.9800365310
  O        -2.3254552399        2.8029761450        2.2415896879
  H        -1.6073948127        2.1609022472        2.2120167321
  H        -2.7692136709        2.5800460146        3.1090186811
  O         0.8675884642       -0.6628268619       -5.6041378779
  H         1.7075029498       -0.8373935026       -6.1238875256
  H         1.2205407923       -0.2375776887       -4.7611724619
  O        -1.1815319004       -0.7199678852        0.2503178521
  H        -1.1290146718        0.2266766087       -0.0488115168
  H        -0.9240471620       -0.7958415642        1.1952168607
  O        -3.8843687405       -9.0115819748       -3.1275502989
  H        -4.4904216873       -8.2905263791       -3.2100756237
  H        -2.9095888534       -8.7339196579       -3.1214684702
  O         4.9818369079        4.5540832258        2.1657972427
  H         4.5669384909        4.0857287427        1.4114732908
  H         4.2122767804        4.9014165696        2.7011383136
  O         4.2020246520        1.0333606795       -3.2066327455
  H         4.6628138450        0.8643769084       -4.0468298715
  H         4.4357675269        0.1935403197       -2.7296232104
  O        -5.2067055405       -6.3489465207       -2.6909445654
  H        -5.3627914836       -6.0527471682       -1.7380384710
  H        -6.0101795207       -6.1050403808       -3.1646175327
  O         4.8304974454       -2.1561122200        0.6980929013
  H         5.1673388103       -1.3628687632        1.1605653806